
     Program PHONON v.5.4.0 starts on 20Jul2016 at 16:57:41 

     This program is part of the open-source Quantum ESPRESSO suite
     for quantum simulation of materials; please cite
         "P. Giannozzi et al., J. Phys.:Condens. Matter 21 395502 (2009);
          URL http://www.quantum-espresso.org", 
     in publications or presentations arising from this work. More details at
     http://www.quantum-espresso.org/quote

     Parallel version (MPI), running on     1 processors
     Message from routine phq_readin:
     iverbosity is obsolete, use "verbosity" instead

     Reading data from directory:
     /home/paulatto/ESPRESSO/espresso-5.4.0/D3Q/Examples/Graphene/TMP/gene.save

   Info: using nr1, nr2, nr3 values from input

   Info: using nr1, nr2, nr3 values from input

     IMPORTANT: XC functional enforced from input :
     Exchange-correlation      = PBE ( 1  4  3  4 0 0)
     Any further DFT definition will be discarded
     Please, verify this is what you really want

               file C.pbe-mt_fhi.UPF: wavefunction(s)  4f renormalized

     G-vector sticks info
     --------------------
     sticks:   dense  smooth     PW     G-vecs:    dense   smooth      PW
     Sum          73      73     31                 1435     1435     325



     Dynamical matrices for ( 4, 4, 1)  uniform grid of q-points
     (   4q-points):
       N         xq(1)         xq(2)         xq(3) 
       1   0.000000000   0.000000000   0.000000000
       2   0.000000000   0.288675135   0.000000000
       3   0.000000000  -0.577350269   0.000000000
       4   0.250000000   0.433012702   0.000000000
  autoval = -.2030E+01
     Irreps are as follows:

                     mode #   1
                     (  -0.70711  -0.00000   ) 
                     (  -0.00018  -0.00000   ) 
                     (  -0.00000  -0.00000   ) 
                     (   0.70711  -0.00000   ) 
                     (   0.00018  -0.00000   ) 
                     (  -0.00000  -0.00000   ) 
  autoval = -.2030E+01
     Irreps are as follows:

                     mode #   2
                     (  -0.00018  -0.00000   ) 
                     (   0.70711  -0.00000   ) 
                     (  -0.00000  -0.00000   ) 
                     (   0.00018  -0.00000   ) 
                     (  -0.70711  -0.00000   ) 
                     (  -0.00000  -0.00000   ) 
  autoval = -.9672E-01
     Irreps are as follows:

                     mode #   3
                     (  -0.00000  -0.00000   ) 
                     (  -0.00000  -0.00000   ) 
                     (  -0.70711  -0.00000   ) 
                     (  -0.00000  -0.00000   ) 
                     (  -0.00000  -0.00000   ) 
                     (  -0.70711  -0.00000   ) 
  autoval = -.7768E-03
     Irreps are as follows:

                     mode #   4
                     (  -0.66753  -0.00000   ) 
                     (  -0.23323  -0.00000   ) 
                     (  -0.00000  -0.00000   ) 
                     (  -0.66753  -0.00000   ) 
                     (  -0.23323  -0.00000   ) 
                     (   0.00000  -0.00000   ) 
  autoval = -.7768E-03
     Irreps are as follows:

                     mode #   5
                     (  -0.23323  -0.00000   ) 
                     (   0.66753  -0.00000   ) 
                     (  -0.00000  -0.00000   ) 
                     (  -0.23323  -0.00000   ) 
                     (   0.66753  -0.00000   ) 
                     (  -0.00000  -0.00000   ) 
  autoval = 0.9478E-01
     Irreps are as follows:

                     mode #   6
                     (   0.00000  -0.00000   ) 
                     (   0.00000   0.00000   ) 
                     (  -0.70711  -0.00000   ) 
                     (   0.00000  -0.00000   ) 
                     (   0.00000  -0.00000   ) 
                     (   0.70711  -0.00000   ) 
  autoval = -.1640E+01
     Irreps are as follows:

                     mode #   1
                     (  -0.00000   0.00000   ) 
                     (  -1.00000  -0.00000   ) 
                     (  -0.00000  -0.00000   ) 
                     (  -0.00000  -0.00000   ) 
                     (  -0.00000  -0.00000   ) 
                     (  -0.00000  -0.00000   ) 
  autoval = -.8985E+00
     Irreps are as follows:

                     mode #   2
                     (  -1.00000  -0.00000   ) 
                     (  -0.00000  -0.00000   ) 
                     (  -0.00000  -0.00000   ) 
                     (  -0.00000  -0.00000   ) 
                     (  -0.00000  -0.00000   ) 
                     (  -0.00000  -0.00000   ) 
  autoval = -.3100E-01
     Irreps are as follows:

                     mode #   3
                     (  -0.00000  -0.00000   ) 
                     (  -0.00000  -0.00000   ) 
                     (  -0.00000  -0.00000   ) 
                     (  -0.00000  -0.00000   ) 
                     (  -0.00000   0.00000   ) 
                     (  -1.00000  -0.00000   ) 
  autoval = 0.6150E-02
     Irreps are as follows:

                     mode #   4
                     (  -0.00000   0.00000   ) 
                     (  -0.00000   0.00000   ) 
                     (  -0.00000   0.00000   ) 
                     (  -1.00000  -0.00000   ) 
                     (  -0.00000  -0.00000   ) 
                     (  -0.00000  -0.00000   ) 
  autoval = 0.4645E-01
     Irreps are as follows:

                     mode #   5
                     (  -0.00000  -0.00000   ) 
                     (  -0.00000  -0.00000   ) 
                     (  -0.00000  -0.00000   ) 
                     (  -0.00000  -0.00000   ) 
                     (  -1.00000  -0.00000   ) 
                     (  -0.00000   0.00000   ) 
  autoval = 0.7352E-01
     Irreps are as follows:

                     mode #   6
                     (  -0.00000   0.00000   ) 
                     (  -0.00000   0.00000   ) 
                     (  -1.00000  -0.00000   ) 
                     (  -0.00000  -0.00000   ) 
                     (  -0.00000  -0.00000   ) 
                     (  -0.00000  -0.00000   ) 
  autoval = -.2323E+01
     Irreps are as follows:

                     mode #   1
                     (  -0.00000  -0.00000   ) 
                     (  -0.70711  -0.00000   ) 
                     (   0.00000  -0.00000   ) 
                     (  -0.00000  -0.00000   ) 
                     (  -0.70711  -0.00000   ) 
                     (  -0.00000  -0.00000   ) 
  autoval = -.1449E+00
     Irreps are as follows:

                     mode #   2
                     (  -0.70711  -0.00000   ) 
                     (  -0.00000  -0.00000   ) 
                     (  -0.00000  -0.00000   ) 
                     (  -0.70711  -0.00000   ) 
                     (  -0.00000  -0.00000   ) 
                     (  -0.00000  -0.00000   ) 
  autoval = -.3539E-01
     Irreps are as follows:

                     mode #   3
                     (  -0.00000  -0.00000   ) 
                     (  -0.00000  -0.00000   ) 
                     (  -0.70711  -0.00000   ) 
                     (  -0.00000  -0.00000   ) 
                     (  -0.00000  -0.00000   ) 
                     (   0.70711  -0.00000   ) 
  autoval = 0.4180E-01
     Irreps are as follows:

                     mode #   4
                     (  -0.00000  -0.00000   ) 
                     (  -0.00000  -0.00000   ) 
                     (  -0.70711  -0.00000   ) 
                     (  -0.00000  -0.00000   ) 
                     (  -0.00000  -0.00000   ) 
                     (  -0.70711  -0.00000   ) 
  autoval = 0.2108E+00
     Irreps are as follows:

                     mode #   5
                     (  -0.70711  -0.00000   ) 
                     (  -0.00000   0.00000   ) 
                     (  -0.00000   0.00000   ) 
                     (   0.70711   0.00000   ) 
                     (  -0.00000   0.00000   ) 
                     (  -0.00000   0.00000   ) 
  autoval = 0.3031E+00
     Irreps are as follows:

                     mode #   6
                     (  -0.00000  -0.00000   ) 
                     (  -0.70711  -0.00000   ) 
                     (  -0.00000  -0.00000   ) 
                     (  -0.00000  -0.00000   ) 
                     (   0.70711  -0.00000   ) 
                     (  -0.00000  -0.00000   ) 
  autoval = -.1931E+01
     Irreps are as follows:

                     mode #   1
                     (  -0.57808  -0.00000   ) 
                     (  -0.27388   0.30136   ) 
                     (  -0.00000   0.00000   ) 
                     (  -0.26098   0.05186   ) 
                     (  -0.15070  -0.63757   ) 
                     (   0.00000  -0.00000   ) 
  autoval = -.1872E+01
     Irreps are as follows:

                     mode #   2
                     (  -0.41720  -0.00000   ) 
                     (  -0.35820   0.44457   ) 
                     (   0.00000  -0.00000   ) 
                     (   0.38501   0.10160   ) 
                     (   0.22230   0.54040   ) 
                     (   0.00000  -0.00000   ) 
  autoval = -.5459E-01
     Irreps are as follows:

                     mode #   3
                     (   0.00000  -0.00000   ) 
                     (   0.00000  -0.00000   ) 
                     (  -0.70711  -0.00000   ) 
                     (   0.00000  -0.00000   ) 
                     (   0.00000  -0.00000   ) 
                     (   0.00002   0.70711   ) 
  autoval = 0.6100E-01
     Irreps are as follows:

                     mode #   4
                     (  -0.00000  -0.00000   ) 
                     (  -0.00000  -0.00000   ) 
                     (  -0.70711  -0.00000   ) 
                     (  -0.00000  -0.00000   ) 
                     (  -0.00000  -0.00000   ) 
                     (  -0.00002  -0.70711   ) 
  autoval = 0.5299E+00
     Irreps are as follows:

                     mode #   5
                     (  -0.40722  -0.00000   ) 
                     (   0.38879  -0.42780   ) 
                     (  -0.00000  -0.00000   ) 
                     (   0.37050   0.54030   ) 
                     (   0.21390  -0.15827   ) 
                     (  -0.00000   0.00000   ) 
  autoval = 0.1319E+01
     Irreps are as follows:

                     mode #   6
                     (  -0.57092  -0.00000   ) 
                     (   0.26175  -0.32487   ) 
                     (   0.00000   0.00000   ) 
                     (  -0.28136  -0.51213   ) 
                     (  -0.16242   0.36356   ) 
                     (   0.00000  -0.00000   ) 

     Calculation of q =    0.0000000   0.0000000   0.0000000

                                                                                

     bravais-lattice index     =            4
     lattice parameter (alat)  =       4.6074  a.u.
     unit-cell volume          =     254.1126 (a.u.)^3
     number of atoms/cell      =            2
     number of atomic types    =            1
     kinetic-energy cut-off    =      12.0000  Ry
     charge density cut-off    =      48.0000  Ry
     convergence threshold     =      1.0E-15
     beta                      =       0.7000
     number of iterations used =            4
     Exchange-correlation      = PBE ( 1  4  3  4 0 0)


     celldm(1)=    4.60742  celldm(2)=    0.00000  celldm(3)=    3.00000
     celldm(4)=    0.00000  celldm(5)=    0.00000  celldm(6)=    0.00000

     crystal axes: (cart. coord. in units of alat)
               a(1) = (  1.0000  0.0000  0.0000 )  
               a(2) = ( -0.5000  0.8660  0.0000 )  
               a(3) = (  0.0000  0.0000  3.0000 )  

     reciprocal axes: (cart. coord. in units 2 pi/alat)
               b(1) = (  1.0000  0.5774 -0.0000 )  
               b(2) = (  0.0000  1.1547  0.0000 )  
               b(3) = (  0.0000 -0.0000  0.3333 )  


     Atoms inside the unit cell: 

     Cartesian axes

     site n.  atom      mass           positions (alat units)
        1     C   12.0107   tau(    1) = (    0.50000    0.28868    0.00000  )
        2     C   12.0107   tau(    2) = (    0.50000   -0.28868    0.00000  )

     Computing dynamical matrix for 
                    q = (   0.0000000   0.0000000   0.0000000 )

     25 Sym.Ops. (with q -> -q+G )

                                    s                        frac. trans.

      isym =  1     identity                                     

 cryst.   s( 1) = (     1          0          0      )
                  (     0          1          0      )
                  (     0          0          1      )

 cart.    s( 1) = (  1.0000000  0.0000000  0.0000000 )
                  (  0.0000000  1.0000000  0.0000000 )
                  (  0.0000000  0.0000000  1.0000000 )


      isym =  2     inv. 180 deg rotation - cart. axis [0,0,1]   

 cryst.   s( 2) = (     1          0          0      )
                  (     0          1          0      )
                  (     0          0         -1      )

 cart.    s( 2) = (  1.0000000  0.0000000  0.0000000 )
                  (  0.0000000  1.0000000  0.0000000 )
                  (  0.0000000  0.0000000 -1.0000000 )


      isym =  3     180 deg rotation - cryst. axis [1,1,0]       

 cryst.   s( 3) = (     0          1          0      )
                  (     1          0          0      )
                  (     0          0         -1      )

 cart.    s( 3) = ( -0.5000000  0.8660254  0.0000000 )
                  (  0.8660254  0.5000000  0.0000000 )
                  (  0.0000000  0.0000000 -1.0000000 )


      isym =  4     inv. 180 deg rotation - cryst. axis [1,-1,0] 

 cryst.   s( 4) = (     0          1          0      )
                  (     1          0          0      )
                  (     0          0          1      )

 cart.    s( 4) = ( -0.5000000  0.8660254  0.0000000 )
                  (  0.8660254  0.5000000  0.0000000 )
                  (  0.0000000  0.0000000  1.0000000 )


      isym =  5     inversion                                    

 cryst.   s( 5) = (    -1          0          0      )
                  (     0         -1          0      )
                  (     0          0         -1      )

 cart.    s( 5) = ( -1.0000000  0.0000000  0.0000000 )
                  (  0.0000000 -1.0000000  0.0000000 )
                  (  0.0000000  0.0000000 -1.0000000 )


      isym =  6     180 deg rotation - cart. axis [0,0,1]        

 cryst.   s( 6) = (    -1          0          0      )
                  (     0         -1          0      )
                  (     0          0          1      )

 cart.    s( 6) = ( -1.0000000  0.0000000  0.0000000 )
                  (  0.0000000 -1.0000000  0.0000000 )
                  (  0.0000000  0.0000000  1.0000000 )


      isym =  7     inv. 180 deg rotation - cart. axis [0,1,0]   

 cryst.   s( 7) = (     1          0          0      )
                  (    -1         -1          0      )
                  (     0          0          1      )

 cart.    s( 7) = (  1.0000000  0.0000000  0.0000000 )
                  (  0.0000000 -1.0000000  0.0000000 )
                  (  0.0000000  0.0000000  1.0000000 )


      isym =  8     180 deg rotation - cart. axis [1,0,0]        

 cryst.   s( 8) = (     1          0          0      )
                  (    -1         -1          0      )
                  (     0          0         -1      )

 cart.    s( 8) = (  1.0000000  0.0000000  0.0000000 )
                  (  0.0000000 -1.0000000  0.0000000 )
                  (  0.0000000  0.0000000 -1.0000000 )


      isym =  9     180 deg rotation - cryst. axis [1,-1,0]      

 cryst.   s( 9) = (     0         -1          0      )
                  (    -1          0          0      )
                  (     0          0         -1      )

 cart.    s( 9) = (  0.5000000 -0.8660254  0.0000000 )
                  ( -0.8660254 -0.5000000  0.0000000 )
                  (  0.0000000  0.0000000 -1.0000000 )


      isym = 10     180 deg rotation - cryst. axis [2,1,0]       

 cryst.   s(10) = (     1          1          0      )
                  (     0         -1          0      )
                  (     0          0         -1      )

 cart.    s(10) = (  0.5000000  0.8660254  0.0000000 )
                  (  0.8660254 -0.5000000  0.0000000 )
                  (  0.0000000  0.0000000 -1.0000000 )


      isym = 11     180 deg rotation - cryst. axis [0,1,0]       

 cryst.   s(11) = (    -1         -1          0      )
                  (     0          1          0      )
                  (     0          0         -1      )

 cart.    s(11) = ( -0.5000000 -0.8660254  0.0000000 )
                  ( -0.8660254  0.5000000  0.0000000 )
                  (  0.0000000  0.0000000 -1.0000000 )


      isym = 12     180 deg rotation - cart. axis [0,1,0]        

 cryst.   s(12) = (    -1          0          0      )
                  (     1          1          0      )
                  (     0          0         -1      )

 cart.    s(12) = ( -1.0000000  0.0000000  0.0000000 )
                  (  0.0000000  1.0000000  0.0000000 )
                  (  0.0000000  0.0000000 -1.0000000 )


      isym = 13      60 deg rotation - cryst. axis [0,0,1]       

 cryst.   s(13) = (     1          1          0      )
                  (    -1          0          0      )
                  (     0          0          1      )

 cart.    s(13) = (  0.5000000 -0.8660254  0.0000000 )
                  (  0.8660254  0.5000000  0.0000000 )
                  (  0.0000000  0.0000000  1.0000000 )


      isym = 14      60 deg rotation - cryst. axis [0,0,-1]      

 cryst.   s(14) = (     0         -1          0      )
                  (     1          1          0      )
                  (     0          0          1      )

 cart.    s(14) = (  0.5000000  0.8660254  0.0000000 )
                  ( -0.8660254  0.5000000  0.0000000 )
                  (  0.0000000  0.0000000  1.0000000 )


      isym = 15     120 deg rotation - cryst. axis [0,0,1]       

 cryst.   s(15) = (     0          1          0      )
                  (    -1         -1          0      )
                  (     0          0          1      )

 cart.    s(15) = ( -0.5000000 -0.8660254  0.0000000 )
                  (  0.8660254 -0.5000000  0.0000000 )
                  (  0.0000000  0.0000000  1.0000000 )


      isym = 16     120 deg rotation - cryst. axis [0,0,-1]      

 cryst.   s(16) = (    -1         -1          0      )
                  (     1          0          0      )
                  (     0          0          1      )

 cart.    s(16) = ( -0.5000000  0.8660254  0.0000000 )
                  ( -0.8660254 -0.5000000  0.0000000 )
                  (  0.0000000  0.0000000  1.0000000 )


      isym = 17     inv.  60 deg rotation - cryst. axis [0,0,1]  

 cryst.   s(17) = (    -1         -1          0      )
                  (     1          0          0      )
                  (     0          0         -1      )

 cart.    s(17) = ( -0.5000000  0.8660254  0.0000000 )
                  ( -0.8660254 -0.5000000  0.0000000 )
                  (  0.0000000  0.0000000 -1.0000000 )


      isym = 18     inv.  60 deg rotation - cryst. axis [0,0,-1] 

 cryst.   s(18) = (     0          1          0      )
                  (    -1         -1          0      )
                  (     0          0         -1      )

 cart.    s(18) = ( -0.5000000 -0.8660254  0.0000000 )
                  (  0.8660254 -0.5000000  0.0000000 )
                  (  0.0000000  0.0000000 -1.0000000 )


      isym = 19     inv. 120 deg rotation - cryst. axis [0,0,1]  

 cryst.   s(19) = (     0         -1          0      )
                  (     1          1          0      )
                  (     0          0         -1      )

 cart.    s(19) = (  0.5000000  0.8660254  0.0000000 )
                  ( -0.8660254  0.5000000  0.0000000 )
                  (  0.0000000  0.0000000 -1.0000000 )


      isym = 20     inv. 120 deg rotation - cryst. axis [0,0,-1] 

 cryst.   s(20) = (     1          1          0      )
                  (    -1          0          0      )
                  (     0          0         -1      )

 cart.    s(20) = (  0.5000000 -0.8660254  0.0000000 )
                  (  0.8660254  0.5000000  0.0000000 )
                  (  0.0000000  0.0000000 -1.0000000 )


      isym = 21     inv. 180 deg rotation - cart. axis [1,0,0]   

 cryst.   s(21) = (    -1          0          0      )
                  (     1          1          0      )
                  (     0          0          1      )

 cart.    s(21) = ( -1.0000000  0.0000000  0.0000000 )
                  (  0.0000000  1.0000000  0.0000000 )
                  (  0.0000000  0.0000000  1.0000000 )


      isym = 22     inv. 180 deg rotation - cryst. axis [2,1,0]  

 cryst.   s(22) = (    -1         -1          0      )
                  (     0          1          0      )
                  (     0          0          1      )

 cart.    s(22) = ( -0.5000000 -0.8660254  0.0000000 )
                  ( -0.8660254  0.5000000  0.0000000 )
                  (  0.0000000  0.0000000  1.0000000 )


      isym = 23     inv. 180 deg rotation - cryst. axis [0,1,0]  

 cryst.   s(23) = (     1          1          0      )
                  (     0         -1          0      )
                  (     0          0          1      )

 cart.    s(23) = (  0.5000000  0.8660254  0.0000000 )
                  (  0.8660254 -0.5000000  0.0000000 )
                  (  0.0000000  0.0000000  1.0000000 )


      isym = 24     inv. 180 deg rotation - cryst. axis [1,1,0]  

 cryst.   s(24) = (     0         -1          0      )
                  (    -1          0          0      )
                  (     0          0          1      )

 cart.    s(24) = (  0.5000000 -0.8660254  0.0000000 )
                  ( -0.8660254 -0.5000000  0.0000000 )
                  (  0.0000000  0.0000000  1.0000000 )


     This transformation sends q -> -q+G

      isym = 25     identity                                     

 cryst.   s(25) = (     1          0          0      )
                  (     0          1          0      )
                  (     0          0          1      )

 cart.    s(25) = (  1.0000000  0.0000000  0.0000000 )
                  (  0.0000000  1.0000000  0.0000000 )
                  (  0.0000000  0.0000000  1.0000000 )


     G cutoff =   25.8106  (   1435 G-vectors)     FFT grid: ( 12, 12, 32)

     number of k points=     4  Methfessel-Paxton smearing, width (Ry)=  0.0200
                       cart. coord. in units 2pi/alat
        k(    1) = (   0.0000000   0.0000000   0.0000000), wk =   0.1250000
        k(    2) = (   0.0000000   0.2886751   0.0000000), wk =   0.7500000
        k(    3) = (   0.0000000  -0.5773503   0.0000000), wk =   0.3750000
        k(    4) = (   0.2500000   0.4330127   0.0000000), wk =   0.7500000

                       cryst. coord.
        k(    1) = (   0.0000000   0.0000000   0.0000000), wk =   0.1250000
        k(    2) = (   0.0000000   0.2500000   0.0000000), wk =   0.7500000
        k(    3) = (   0.0000000  -0.5000000   0.0000000), wk =   0.3750000
        k(    4) = (   0.2500000   0.2500000   0.0000000), wk =   0.7500000

     PseudoPot. # 1 for  C read from file:
     /home/paulatto/ESPRESSO/espresso-5.4.0/D3Q/Examples/Graphene/UPF/C.pbe-mt_fhi.UPF
     MD5 check sum: 058ca341f9d6d5327d9962fd88a91b65
     Pseudo is Norm-conserving, Zval =  4.0
     Generated using FHI98PP, converted with fhi2upf.x v.5.0.2
     Using radial grid of  461 points,  3 beta functions with: 
                l(1) =   0
                l(2) =   1
                l(3) =   3

     point group D_6h(6/mmm)
     there are 12 classes
     the character table:

       E     2C6   2C3   C2    3C2'  3C2'' i     2S3   2S6   s_h   3s_d  3s_v 
A_1g   1.00  1.00  1.00  1.00  1.00  1.00  1.00  1.00  1.00  1.00  1.00  1.00
A_2g   1.00  1.00  1.00  1.00 -1.00 -1.00  1.00  1.00  1.00  1.00 -1.00 -1.00
B_1g   1.00 -1.00  1.00 -1.00  1.00 -1.00  1.00 -1.00  1.00 -1.00  1.00 -1.00
B_2g   1.00 -1.00  1.00 -1.00 -1.00  1.00  1.00 -1.00  1.00 -1.00 -1.00  1.00
E_1g   2.00  1.00 -1.00 -2.00  0.00  0.00  2.00  1.00 -1.00 -2.00  0.00  0.00
E_2g   2.00 -1.00 -1.00  2.00  0.00  0.00  2.00 -1.00 -1.00  2.00  0.00  0.00
A_1u   1.00  1.00  1.00  1.00  1.00  1.00 -1.00 -1.00 -1.00 -1.00 -1.00 -1.00
A_2u   1.00  1.00  1.00  1.00 -1.00 -1.00 -1.00 -1.00 -1.00 -1.00  1.00  1.00
B_1u   1.00 -1.00  1.00 -1.00  1.00 -1.00 -1.00  1.00 -1.00  1.00 -1.00  1.00
B_2u   1.00 -1.00  1.00 -1.00 -1.00  1.00 -1.00  1.00 -1.00  1.00  1.00 -1.00
E_1u   2.00  1.00 -1.00 -2.00  0.00  0.00 -2.00 -1.00  1.00  2.00  0.00  0.00
E_2u   2.00 -1.00 -1.00  2.00  0.00  0.00 -2.00  1.00  1.00 -2.00  0.00  0.00

     the symmetry operations in each class and the name of the first element:

     E        1
                                                                 
     2C6     13   14
                                                                 
     2C3     15   16
                                                                 
     C2       6
                                                                 
     3C2'     3   11    8
                                                                 
     3C2''    9   10   12
                                                                 
     i        5
                                                                 
     2S3     17   18
                                                                 
     2S6     19   20
                                                                 
     s_h      2
                                                                 
     3s_d    21   23   24
                                                                 
     3s_v     4   22    7
                                                                 


     Atomic displacements:
     There are   4 irreducible representations

     Representation     1      1 modes -B_1g  To be done
     Irreps are as follows:

                     mode #   1
                     (   0.00000  -0.00000   ) 
                     (   0.00000   0.00000   ) 
                     (  -0.70711  -0.00000   ) 
                     (   0.00000  -0.00000   ) 
                     (   0.00000  -0.00000   ) 
                     (   0.70711  -0.00000   ) 

     Representation     2      2 modes -E_2g  To be done
     Irreps are as follows:

           mode #   2                           mode #   3
           (  -0.70711  -0.00000   )            (  -0.00018  -0.00000   ) 
           (  -0.00018  -0.00000   )            (   0.70711  -0.00000   ) 
           (  -0.00000  -0.00000   )            (  -0.00000  -0.00000   ) 
           (   0.70711  -0.00000   )            (   0.00018  -0.00000   ) 
           (   0.00018  -0.00000   )            (  -0.70711  -0.00000   ) 
           (  -0.00000  -0.00000   )            (  -0.00000  -0.00000   ) 

     Representation     3      1 modes -A_2u  To be done
     Irreps are as follows:

                     mode #   4
                     (  -0.00000  -0.00000   ) 
                     (  -0.00000  -0.00000   ) 
                     (  -0.70711  -0.00000   ) 
                     (  -0.00000  -0.00000   ) 
                     (  -0.00000  -0.00000   ) 
                     (  -0.70711  -0.00000   ) 

     Representation     4      2 modes -E_1u  To be done
     Irreps are as follows:

           mode #   5                           mode #   6
           (  -0.66753  -0.00000   )            (  -0.23323  -0.00000   ) 
           (  -0.23323  -0.00000   )            (   0.66753  -0.00000   ) 
           (  -0.00000  -0.00000   )            (  -0.00000  -0.00000   ) 
           (  -0.66753  -0.00000   )            (  -0.23323  -0.00000   ) 
           (  -0.23323  -0.00000   )            (   0.66753  -0.00000   ) 
           (   0.00000  -0.00000   )            (  -0.00000  -0.00000   ) 



     Alpha used in Ewald sum =   0.5000
     PHONON       :     0.20s CPU         0.21s WALL



     Representation #  1 mode #   1

     Self-consistent Calculation

     Pert. #  1: Fermi energy shift (Ry) =    -8.5333E+01     0.0000E+00

      iter #   1 total cpu time :     0.2 secs   av.it.:   3.8
      thresh= 1.000E-02 alpha_mix =  0.700 |ddv_scf|^2 =  3.484E-07

     Pert. #  1: Fermi energy shift (Ry) =    -1.7067E+02     0.0000E+00

      iter #   2 total cpu time :     0.2 secs   av.it.:   5.8
      thresh= 5.902E-05 alpha_mix =  0.700 |ddv_scf|^2 =  1.421E-08

     Pert. #  1: Fermi energy shift (Ry) =     4.2667E+01     0.0000E+00

      iter #   3 total cpu time :     0.3 secs   av.it.:   5.8
      thresh= 1.192E-05 alpha_mix =  0.700 |ddv_scf|^2 =  3.628E-10

     Pert. #  1: Fermi energy shift (Ry) =    -8.5333E+01     0.0000E+00

      iter #   4 total cpu time :     0.3 secs   av.it.:   5.8
      thresh= 1.905E-06 alpha_mix =  0.700 |ddv_scf|^2 =  9.116E-13

     Pert. #  1: Fermi energy shift (Ry) =     8.5333E+01     0.0000E+00

      iter #   5 total cpu time :     0.3 secs   av.it.:   5.8
      thresh= 9.548E-08 alpha_mix =  0.700 |ddv_scf|^2 =  1.157E-14

     Pert. #  1: Fermi energy shift (Ry) =     8.5333E+01     0.0000E+00

      iter #   6 total cpu time :     0.3 secs   av.it.:   5.8
      thresh= 1.075E-08 alpha_mix =  0.700 |ddv_scf|^2 =  1.099E-16

     End of self-consistent calculation

     Convergence has been achieved 


     Representation #  2 modes #   2  3

     Self-consistent Calculation

     Pert. #  1: Fermi energy shift (Ry) =     8.3886E+06    -1.4211E-14
     Pert. #  2: Fermi energy shift (Ry) =     6.9905E+05     7.8160E-14

      iter #   1 total cpu time :     0.3 secs   av.it.:   4.5
      thresh= 1.000E-02 alpha_mix =  0.700 |ddv_scf|^2 =  1.365E-06

     Pert. #  1: Fermi energy shift (Ry) =    -4.3691E+04    -1.2316E-13
     Pert. #  2: Fermi energy shift (Ry) =    -8.7381E+04     1.2553E-13

      iter #   2 total cpu time :     0.4 secs   av.it.:   6.9
      thresh= 1.168E-04 alpha_mix =  0.700 |ddv_scf|^2 =  2.316E-09

     Pert. #  1: Fermi energy shift (Ry) =    -2.3893E+03    -1.4211E-14
     Pert. #  2: Fermi energy shift (Ry) =    -1.9627E+03     7.8160E-14

      iter #   3 total cpu time :     0.4 secs   av.it.:   6.8
      thresh= 4.813E-06 alpha_mix =  0.700 |ddv_scf|^2 =  1.618E-10

     Pert. #  1: Fermi energy shift (Ry) =    -6.8267E+02    -9.4739E-14
     Pert. #  2: Fermi energy shift (Ry) =    -3.4133E+02     6.8686E-14

      iter #   4 total cpu time :     0.4 secs   av.it.:   5.9
      thresh= 1.272E-06 alpha_mix =  0.700 |ddv_scf|^2 =  1.285E-13

     Pert. #  1: Fermi energy shift (Ry) =    -8.8747E+03    -1.2316E-13
     Pert. #  2: Fermi energy shift (Ry) =    -5.4613E+03     1.2553E-13

      iter #   5 total cpu time :     0.5 secs   av.it.:   6.5
      thresh= 3.584E-08 alpha_mix =  0.700 |ddv_scf|^2 =  5.571E-16

     End of self-consistent calculation

     Convergence has been achieved 


     Representation #  3 mode #   4

     Self-consistent Calculation

     Pert. #  1: Fermi energy shift (Ry) =     0.0000E+00     0.0000E+00

      iter #   1 total cpu time :     0.5 secs   av.it.:   5.0
      thresh= 1.000E-02 alpha_mix =  0.700 |ddv_scf|^2 =  9.743E-04

     Pert. #  1: Fermi energy shift (Ry) =     0.0000E+00     0.0000E+00

      iter #   2 total cpu time :     0.5 secs   av.it.:   5.8
      thresh= 3.121E-03 alpha_mix =  0.700 |ddv_scf|^2 =  7.955E-04

     Pert. #  1: Fermi energy shift (Ry) =     3.4133E+02     0.0000E+00

      iter #   3 total cpu time :     0.5 secs   av.it.:   5.5
      thresh= 2.821E-03 alpha_mix =  0.700 |ddv_scf|^2 =  6.230E-08

     Pert. #  1: Fermi energy shift (Ry) =     0.0000E+00     0.0000E+00

      iter #   4 total cpu time :     0.5 secs   av.it.:   5.5
      thresh= 2.496E-05 alpha_mix =  0.700 |ddv_scf|^2 =  6.325E-10

     Pert. #  1: Fermi energy shift (Ry) =     0.0000E+00     0.0000E+00

      iter #   5 total cpu time :     0.6 secs   av.it.:   5.5
      thresh= 2.515E-06 alpha_mix =  0.700 |ddv_scf|^2 =  2.671E-11

     Pert. #  1: Fermi energy shift (Ry) =    -3.4133E+02     0.0000E+00

      iter #   6 total cpu time :     0.6 secs   av.it.:   5.2
      thresh= 5.168E-07 alpha_mix =  0.700 |ddv_scf|^2 =  1.647E-13

     Pert. #  1: Fermi energy shift (Ry) =     3.4133E+02     0.0000E+00

      iter #   7 total cpu time :     0.6 secs   av.it.:   5.5
      thresh= 4.059E-08 alpha_mix =  0.700 |ddv_scf|^2 =  9.867E-16

     End of self-consistent calculation

     Convergence has been achieved 


     Representation #  4 modes #   5  6

     Self-consistent Calculation

     Pert. #  1: Fermi energy shift (Ry) =    -2.5600E+02    -2.4835E-09
     Pert. #  2: Fermi energy shift (Ry) =     4.2667E+01     1.2418E-08

      iter #   1 total cpu time :     0.6 secs   av.it.:   5.0
      thresh= 1.000E-02 alpha_mix =  0.700 |ddv_scf|^2 =  2.633E-07

     Pert. #  1: Fermi energy shift (Ry) =    -3.4133E+02    -9.7013E-12
     Pert. #  2: Fermi energy shift (Ry) =     2.9867E+02    -6.0633E-13

      iter #   2 total cpu time :     0.7 secs   av.it.:   7.6
      thresh= 5.131E-05 alpha_mix =  0.700 |ddv_scf|^2 =  3.261E-09

     Pert. #  1: Fermi energy shift (Ry) =    -2.6667E+02     6.0633E-13
     Pert. #  2: Fermi energy shift (Ry) =     1.6000E+02     4.5475E-13

      iter #   3 total cpu time :     0.7 secs   av.it.:   7.1
      thresh= 5.710E-06 alpha_mix =  0.700 |ddv_scf|^2 =  1.565E-10

     Pert. #  1: Fermi energy shift (Ry) =    -8.5333E+01     3.7896E-14
     Pert. #  2: Fermi energy shift (Ry) =     1.0667E+02    -7.1054E-14

      iter #   4 total cpu time :     0.7 secs   av.it.:   6.6
      thresh= 1.251E-06 alpha_mix =  0.700 |ddv_scf|^2 =  9.989E-14

     Pert. #  1: Fermi energy shift (Ry) =     8.5333E+01    -1.1842E-14
     Pert. #  2: Fermi energy shift (Ry) =     3.8400E+02     1.8948E-14

      iter #   5 total cpu time :     0.8 secs   av.it.:   7.1
      thresh= 3.161E-08 alpha_mix =  0.700 |ddv_scf|^2 =  8.743E-16

     End of self-consistent calculation

     Convergence has been achieved 

     Number of q in the star =    1
     List of q in the star:
          1   0.000000000   0.000000000   0.000000000

     Diagonalizing the dynamical matrix

     q = (    0.000000000   0.000000000   0.000000000 ) 

 **************************************************************************
     freq (    1) =       0.722237 [THz] =      24.091226 [cm-1]
     freq (    2) =       1.444278 [THz] =      48.175941 [cm-1]
     freq (    3) =       1.444278 [THz] =      48.175941 [cm-1]
     freq (    4) =      17.938248 [THz] =     598.355553 [cm-1]
     freq (    5) =      47.538224 [THz] =    1585.704482 [cm-1]
     freq (    6) =      47.538224 [THz] =    1585.704482 [cm-1]
 **************************************************************************

     Mode symmetry, D_6h(6/mmm) point group:

     freq (  1 -  1) =         24.1  [cm-1]   --> A_2u            I  
     freq (  2 -  3) =         48.2  [cm-1]   --> E_1u            I  
     freq (  4 -  4) =        598.4  [cm-1]   --> B_1g               
     freq (  5 -  6) =       1585.7  [cm-1]   --> E_2g            R  

     Number of q in the star =    1
     List of q in the star:
          1   0.000000000   0.000000000   0.000000000
       Writing drho for q = (  0.000000  0.000000  0.000000) on file "drho_rot.0_0_0"

     Calculation of q =    0.0000000   0.2886751   0.0000000

     G-vector sticks info
     --------------------
     sticks:   dense  smooth     PW     G-vecs:    dense   smooth      PW
     Sum          73      73     31                 1435     1435     397



     bravais-lattice index     =            4
     lattice parameter (alat)  =       4.6074  a.u.
     unit-cell volume          =     254.1126 (a.u.)^3
     number of atoms/cell      =            2
     number of atomic types    =            1
     number of electrons       =         8.00
     number of Kohn-Sham states=            8
     kinetic-energy cutoff     =      12.0000  Ry
     charge density cutoff     =      48.0000  Ry
     Exchange-correlation      = PBE ( 1  4  3  4 0 0)

     celldm(1)=   4.607423  celldm(2)=   0.000000  celldm(3)=   3.000000
     celldm(4)=   0.000000  celldm(5)=   0.000000  celldm(6)=   0.000000

     crystal axes: (cart. coord. in units of alat)
               a(1) = (   1.000000   0.000000   0.000000 )  
               a(2) = (  -0.500000   0.866025   0.000000 )  
               a(3) = (   0.000000   0.000000   3.000000 )  

     reciprocal axes: (cart. coord. in units 2 pi/alat)
               b(1) = (  1.000000  0.577350 -0.000000 )  
               b(2) = (  0.000000  1.154701  0.000000 )  
               b(3) = (  0.000000 -0.000000  0.333333 )  


     PseudoPot. # 1 for  C read from file:
     /home/paulatto/ESPRESSO/espresso-5.4.0/D3Q/Examples/Graphene/UPF/C.pbe-mt_fhi.UPF
     MD5 check sum: 058ca341f9d6d5327d9962fd88a91b65
     Pseudo is Norm-conserving, Zval =  4.0
     Generated using FHI98PP, converted with fhi2upf.x v.5.0.2
     Using radial grid of  461 points,  3 beta functions with: 
                l(1) =   0
                l(2) =   1
                l(3) =   3

     atomic species   valence    mass     pseudopotential
        C              4.00    12.01070      C( 1.00)

     24 Sym. Ops., with inversion, found


                                    s                        frac. trans.

      isym =  1     identity                                     

 cryst.   s( 1) = (     1          0          0      )
                  (     0          1          0      )
                  (     0          0          1      )

 cart.    s( 1) = (  1.0000000  0.0000000  0.0000000 )
                  (  0.0000000  1.0000000  0.0000000 )
                  (  0.0000000  0.0000000  1.0000000 )


      isym =  2     inv. 180 deg rotation - cart. axis [0,0,1]   

 cryst.   s( 2) = (     1          0          0      )
                  (     0          1          0      )
                  (     0          0         -1      )

 cart.    s( 2) = (  1.0000000  0.0000000  0.0000000 )
                  (  0.0000000  1.0000000  0.0000000 )
                  (  0.0000000  0.0000000 -1.0000000 )


      isym =  3     180 deg rotation - cart. axis [0,1,0]        

 cryst.   s( 3) = (    -1          0          0      )
                  (     1          1          0      )
                  (     0          0         -1      )

 cart.    s( 3) = ( -1.0000000  0.0000000  0.0000000 )
                  (  0.0000000  1.0000000  0.0000000 )
                  (  0.0000000  0.0000000 -1.0000000 )


      isym =  4     inv. 180 deg rotation - cart. axis [1,0,0]   

 cryst.   s( 4) = (    -1          0          0      )
                  (     1          1          0      )
                  (     0          0          1      )

 cart.    s( 4) = ( -1.0000000  0.0000000  0.0000000 )
                  (  0.0000000  1.0000000  0.0000000 )
                  (  0.0000000  0.0000000  1.0000000 )


      isym =  5     inversion                                    

 cryst.   s( 5) = (    -1          0          0      )
                  (     0         -1          0      )
                  (     0          0         -1      )

 cart.    s( 5) = ( -1.0000000  0.0000000  0.0000000 )
                  (  0.0000000 -1.0000000  0.0000000 )
                  (  0.0000000  0.0000000 -1.0000000 )


      isym =  6     180 deg rotation - cart. axis [0,0,1]        

 cryst.   s( 6) = (    -1          0          0      )
                  (     0         -1          0      )
                  (     0          0          1      )

 cart.    s( 6) = ( -1.0000000  0.0000000  0.0000000 )
                  (  0.0000000 -1.0000000  0.0000000 )
                  (  0.0000000  0.0000000  1.0000000 )


      isym =  7     inv. 180 deg rotation - cart. axis [0,1,0]   

 cryst.   s( 7) = (     1          0          0      )
                  (    -1         -1          0      )
                  (     0          0          1      )

 cart.    s( 7) = (  1.0000000  0.0000000  0.0000000 )
                  (  0.0000000 -1.0000000  0.0000000 )
                  (  0.0000000  0.0000000  1.0000000 )


      isym =  8     180 deg rotation - cart. axis [1,0,0]        

 cryst.   s( 8) = (     1          0          0      )
                  (    -1         -1          0      )
                  (     0          0         -1      )

 cart.    s( 8) = (  1.0000000  0.0000000  0.0000000 )
                  (  0.0000000 -1.0000000  0.0000000 )
                  (  0.0000000  0.0000000 -1.0000000 )


      isym =  9     180 deg rotation - cryst. axis [1,-1,0]      

 cryst.   s( 9) = (     0         -1          0      )
                  (    -1          0          0      )
                  (     0          0         -1      )

 cart.    s( 9) = (  0.5000000 -0.8660254  0.0000000 )
                  ( -0.8660254 -0.5000000  0.0000000 )
                  (  0.0000000  0.0000000 -1.0000000 )


      isym = 10     180 deg rotation - cryst. axis [2,1,0]       

 cryst.   s(10) = (     1          1          0      )
                  (     0         -1          0      )
                  (     0          0         -1      )

 cart.    s(10) = (  0.5000000  0.8660254  0.0000000 )
                  (  0.8660254 -0.5000000  0.0000000 )
                  (  0.0000000  0.0000000 -1.0000000 )


      isym = 11     180 deg rotation - cryst. axis [0,1,0]       

 cryst.   s(11) = (    -1         -1          0      )
                  (     0          1          0      )
                  (     0          0         -1      )

 cart.    s(11) = ( -0.5000000 -0.8660254  0.0000000 )
                  ( -0.8660254  0.5000000  0.0000000 )
                  (  0.0000000  0.0000000 -1.0000000 )


      isym = 12     180 deg rotation - cryst. axis [1,1,0]       

 cryst.   s(12) = (     0          1          0      )
                  (     1          0          0      )
                  (     0          0         -1      )

 cart.    s(12) = ( -0.5000000  0.8660254  0.0000000 )
                  (  0.8660254  0.5000000  0.0000000 )
                  (  0.0000000  0.0000000 -1.0000000 )


      isym = 13      60 deg rotation - cryst. axis [0,0,1]       

 cryst.   s(13) = (     1          1          0      )
                  (    -1          0          0      )
                  (     0          0          1      )

 cart.    s(13) = (  0.5000000 -0.8660254  0.0000000 )
                  (  0.8660254  0.5000000  0.0000000 )
                  (  0.0000000  0.0000000  1.0000000 )


      isym = 14      60 deg rotation - cryst. axis [0,0,-1]      

 cryst.   s(14) = (     0         -1          0      )
                  (     1          1          0      )
                  (     0          0          1      )

 cart.    s(14) = (  0.5000000  0.8660254  0.0000000 )
                  ( -0.8660254  0.5000000  0.0000000 )
                  (  0.0000000  0.0000000  1.0000000 )


      isym = 15     120 deg rotation - cryst. axis [0,0,1]       

 cryst.   s(15) = (     0          1          0      )
                  (    -1         -1          0      )
                  (     0          0          1      )

 cart.    s(15) = ( -0.5000000 -0.8660254  0.0000000 )
                  (  0.8660254 -0.5000000  0.0000000 )
                  (  0.0000000  0.0000000  1.0000000 )


      isym = 16     120 deg rotation - cryst. axis [0,0,-1]      

 cryst.   s(16) = (    -1         -1          0      )
                  (     1          0          0      )
                  (     0          0          1      )

 cart.    s(16) = ( -0.5000000  0.8660254  0.0000000 )
                  ( -0.8660254 -0.5000000  0.0000000 )
                  (  0.0000000  0.0000000  1.0000000 )


      isym = 17     inv.  60 deg rotation - cryst. axis [0,0,1]  

 cryst.   s(17) = (    -1         -1          0      )
                  (     1          0          0      )
                  (     0          0         -1      )

 cart.    s(17) = ( -0.5000000  0.8660254  0.0000000 )
                  ( -0.8660254 -0.5000000  0.0000000 )
                  (  0.0000000  0.0000000 -1.0000000 )


      isym = 18     inv.  60 deg rotation - cryst. axis [0,0,-1] 

 cryst.   s(18) = (     0          1          0      )
                  (    -1         -1          0      )
                  (     0          0         -1      )

 cart.    s(18) = ( -0.5000000 -0.8660254  0.0000000 )
                  (  0.8660254 -0.5000000  0.0000000 )
                  (  0.0000000  0.0000000 -1.0000000 )


      isym = 19     inv. 120 deg rotation - cryst. axis [0,0,1]  

 cryst.   s(19) = (     0         -1          0      )
                  (     1          1          0      )
                  (     0          0         -1      )

 cart.    s(19) = (  0.5000000  0.8660254  0.0000000 )
                  ( -0.8660254  0.5000000  0.0000000 )
                  (  0.0000000  0.0000000 -1.0000000 )


      isym = 20     inv. 120 deg rotation - cryst. axis [0,0,-1] 

 cryst.   s(20) = (     1          1          0      )
                  (    -1          0          0      )
                  (     0          0         -1      )

 cart.    s(20) = (  0.5000000 -0.8660254  0.0000000 )
                  (  0.8660254  0.5000000  0.0000000 )
                  (  0.0000000  0.0000000 -1.0000000 )


      isym = 21     inv. 180 deg rotation - cryst. axis [1,-1,0] 

 cryst.   s(21) = (     0          1          0      )
                  (     1          0          0      )
                  (     0          0          1      )

 cart.    s(21) = ( -0.5000000  0.8660254  0.0000000 )
                  (  0.8660254  0.5000000  0.0000000 )
                  (  0.0000000  0.0000000  1.0000000 )


      isym = 22     inv. 180 deg rotation - cryst. axis [2,1,0]  

 cryst.   s(22) = (    -1         -1          0      )
                  (     0          1          0      )
                  (     0          0          1      )

 cart.    s(22) = ( -0.5000000 -0.8660254  0.0000000 )
                  ( -0.8660254  0.5000000  0.0000000 )
                  (  0.0000000  0.0000000  1.0000000 )


      isym = 23     inv. 180 deg rotation - cryst. axis [0,1,0]  

 cryst.   s(23) = (     1          1          0      )
                  (     0         -1          0      )
                  (     0          0          1      )

 cart.    s(23) = (  0.5000000  0.8660254  0.0000000 )
                  (  0.8660254 -0.5000000  0.0000000 )
                  (  0.0000000  0.0000000  1.0000000 )


      isym = 24     inv. 180 deg rotation - cryst. axis [1,1,0]  

 cryst.   s(24) = (     0         -1          0      )
                  (    -1          0          0      )
                  (     0          0          1      )

 cart.    s(24) = (  0.5000000 -0.8660254  0.0000000 )
                  ( -0.8660254 -0.5000000  0.0000000 )
                  (  0.0000000  0.0000000  1.0000000 )


     point group D_6h(6/mmm)
     there are 12 classes
     the character table:

       E     2C6   2C3   C2    3C2'  3C2'' i     2S3   2S6   s_h   3s_d  3s_v 
A_1g   1.00  1.00  1.00  1.00  1.00  1.00  1.00  1.00  1.00  1.00  1.00  1.00
A_2g   1.00  1.00  1.00  1.00 -1.00 -1.00  1.00  1.00  1.00  1.00 -1.00 -1.00
B_1g   1.00 -1.00  1.00 -1.00  1.00 -1.00  1.00 -1.00  1.00 -1.00  1.00 -1.00
B_2g   1.00 -1.00  1.00 -1.00 -1.00  1.00  1.00 -1.00  1.00 -1.00 -1.00  1.00
E_1g   2.00  1.00 -1.00 -2.00  0.00  0.00  2.00  1.00 -1.00 -2.00  0.00  0.00
E_2g   2.00 -1.00 -1.00  2.00  0.00  0.00  2.00 -1.00 -1.00  2.00  0.00  0.00
A_1u   1.00  1.00  1.00  1.00  1.00  1.00 -1.00 -1.00 -1.00 -1.00 -1.00 -1.00
A_2u   1.00  1.00  1.00  1.00 -1.00 -1.00 -1.00 -1.00 -1.00 -1.00  1.00  1.00
B_1u   1.00 -1.00  1.00 -1.00  1.00 -1.00 -1.00  1.00 -1.00  1.00 -1.00  1.00
B_2u   1.00 -1.00  1.00 -1.00 -1.00  1.00 -1.00  1.00 -1.00  1.00  1.00 -1.00
E_1u   2.00  1.00 -1.00 -2.00  0.00  0.00 -2.00 -1.00  1.00  2.00  0.00  0.00
E_2u   2.00 -1.00 -1.00  2.00  0.00  0.00 -2.00  1.00  1.00 -2.00  0.00  0.00

     the symmetry operations in each class and the name of the first element:

     E        1
          identity                                               
     2C6     13   14
           60 deg rotation - cryst. axis [0,0,1]                 
     2C3     15   16
          120 deg rotation - cryst. axis [0,0,1]                 
     C2       6
          180 deg rotation - cart. axis [0,0,1]                  
     3C2'     8   11   12
          180 deg rotation - cart. axis [1,0,0]                  
     3C2''    3   10    9
          180 deg rotation - cart. axis [0,1,0]                  
     i        5
          inversion                                              
     2S3     17   18
          inv.  60 deg rotation - cryst. axis [0,0,1]            
     2S6     19   20
          inv. 120 deg rotation - cryst. axis [0,0,1]            
     s_h      2
          inv. 180 deg rotation - cart. axis [0,0,1]             
     3s_d     4   23   24
          inv. 180 deg rotation - cart. axis [1,0,0]             
     3s_v     7   22   21
          inv. 180 deg rotation - cart. axis [0,1,0]             

   Cartesian axes

     site n.     atom                  positions (alat units)
         1           C   tau(   1) = (   0.5000000   0.2886800   0.0000000  )
         2           C   tau(   2) = (   0.5000000  -0.2886800   0.0000000  )

   Crystallographic axes

     site n.     atom                  positions (cryst. coord.)
         1           C   tau(   1) = (  0.6666695  0.3333390  0.0000000  )
         2           C   tau(   2) = (  0.3333305 -0.3333390  0.0000000  )

     number of k points=    20  Methfessel-Paxton smearing, width (Ry)=  0.0200
                       cart. coord. in units 2pi/alat
        k(    1) = (   0.0000000   0.0000000   0.0000000), wk =   0.1250000
        k(    2) = (   0.0000000   0.2886751   0.0000000), wk =   0.0000000
        k(    3) = (   0.0000000   0.2886751   0.0000000), wk =   0.1250000
        k(    4) = (   0.0000000   0.5773503   0.0000000), wk =   0.0000000
        k(    5) = (   0.0000000  -0.5773503   0.0000000), wk =   0.1250000
        k(    6) = (   0.0000000  -0.2886751   0.0000000), wk =   0.0000000
        k(    7) = (   0.2500000   0.4330127   0.0000000), wk =   0.2500000
        k(    8) = (   0.2500000   0.7216878   0.0000000), wk =   0.0000000
        k(    9) = (   0.0000000  -0.2886751   0.0000000), wk =   0.1250000
        k(   10) = (   0.0000000   0.0000000   0.0000000), wk =   0.0000000
        k(   11) = (  -0.2500000  -0.1443376   0.0000000), wk =   0.2500000
        k(   12) = (  -0.2500000   0.1443376   0.0000000), wk =   0.0000000
        k(   13) = (  -0.2500000   0.1443376   0.0000000), wk =   0.2500000
        k(   14) = (  -0.2500000   0.4330127   0.0000000), wk =   0.0000000
        k(   15) = (   0.5000000   0.2886751   0.0000000), wk =   0.2500000
        k(   16) = (   0.5000000   0.5773503   0.0000000), wk =   0.0000000
        k(   17) = (  -0.2500000  -0.4330127   0.0000000), wk =   0.2500000
        k(   18) = (  -0.2500000  -0.1443376   0.0000000), wk =   0.0000000
        k(   19) = (   0.5000000   0.0000000   0.0000000), wk =   0.2500000
        k(   20) = (   0.5000000   0.2886751   0.0000000), wk =   0.0000000

                       cryst. coord.
        k(    1) = (   0.0000000   0.0000000   0.0000000), wk =   0.1250000
        k(    2) = (   0.0000000   0.2500000   0.0000000), wk =   0.0000000
        k(    3) = (   0.0000000   0.2500000   0.0000000), wk =   0.1250000
        k(    4) = (   0.0000000   0.5000000   0.0000000), wk =   0.0000000
        k(    5) = (   0.0000000  -0.5000000   0.0000000), wk =   0.1250000
        k(    6) = (   0.0000000  -0.2500000   0.0000000), wk =   0.0000000
        k(    7) = (   0.2500000   0.2500000   0.0000000), wk =   0.2500000
        k(    8) = (   0.2500000   0.5000000   0.0000000), wk =   0.0000000
        k(    9) = (   0.0000000  -0.2500000   0.0000000), wk =   0.1250000
        k(   10) = (   0.0000000   0.0000000   0.0000000), wk =   0.0000000
        k(   11) = (  -0.2500000   0.0000000   0.0000000), wk =   0.2500000
        k(   12) = (  -0.2500000   0.2500000   0.0000000), wk =   0.0000000
        k(   13) = (  -0.2500000   0.2500000   0.0000000), wk =   0.2500000
        k(   14) = (  -0.2500000   0.5000000   0.0000000), wk =   0.0000000
        k(   15) = (   0.5000000   0.0000000   0.0000000), wk =   0.2500000
        k(   16) = (   0.5000000   0.2500000   0.0000000), wk =   0.0000000
        k(   17) = (  -0.2500000  -0.2500000   0.0000000), wk =   0.2500000
        k(   18) = (  -0.2500000   0.0000000   0.0000000), wk =   0.0000000
        k(   19) = (   0.5000000  -0.2500000   0.0000000), wk =   0.2500000
        k(   20) = (   0.5000000   0.0000000   0.0000000), wk =   0.0000000

     Dense  grid:     1435 G-vectors     FFT dimensions: (  12,  12,  32)

     Largest allocated arrays     est. size (Mb)     dimensions
        Kohn-Sham Wavefunctions         0.02 Mb     (     189,    8)
        NL pseudopotentials             0.06 Mb     (     189,   22)
        Each V/rho on FFT grid          0.07 Mb     (    4608)
        Each G-vector array             0.01 Mb     (    1435)
        G-vector shells                 0.00 Mb     (      66)
     Largest temporary arrays     est. size (Mb)     dimensions
        Auxiliary wavefunctions         0.09 Mb     (     189,   32)
        Each subspace H/S matrix        0.02 Mb     (      32,   32)
        Each <psi_i|beta_j> matrix      0.00 Mb     (      22,    8)

     The potential is recalculated from file :
     /home/paulatto/ESPRESSO/espresso-5.4.0/D3Q/Examples/Graphene/TMP/_ph0/gene.save/charge-density.dat

     Starting wfc are   32 atomic wfcs

     Band Structure Calculation
     Davidson diagonalization with overlap

     Computing kpt #:     1
     total cpu time spent up to now is        0.1 secs

     Computing kpt #:     2
     total cpu time spent up to now is        0.1 secs

     Computing kpt #:     3
     total cpu time spent up to now is        0.1 secs

     Computing kpt #:     4
     total cpu time spent up to now is        0.1 secs

     Computing kpt #:     5
     total cpu time spent up to now is        0.1 secs

     Computing kpt #:     6
     total cpu time spent up to now is        0.1 secs

     Computing kpt #:     7
     total cpu time spent up to now is        0.1 secs

     Computing kpt #:     8
     total cpu time spent up to now is        0.1 secs

     Computing kpt #:     9
     total cpu time spent up to now is        0.1 secs

     Computing kpt #:    10
     total cpu time spent up to now is        0.1 secs

     Computing kpt #:    11
     total cpu time spent up to now is        0.2 secs

     Computing kpt #:    12
     total cpu time spent up to now is        0.2 secs

     Computing kpt #:    13
     total cpu time spent up to now is        0.2 secs

     Computing kpt #:    14
     total cpu time spent up to now is        0.2 secs

     Computing kpt #:    15
     total cpu time spent up to now is        0.2 secs

     Computing kpt #:    16
     total cpu time spent up to now is        0.2 secs

     Computing kpt #:    17
     total cpu time spent up to now is        0.2 secs

     Computing kpt #:    18
     total cpu time spent up to now is        0.2 secs

     Computing kpt #:    19
     total cpu time spent up to now is        0.2 secs

     Computing kpt #:    20
     total cpu time spent up to now is        0.3 secs

     ethr =  1.25E-10,  avg # of iterations = 11.0

     total cpu time spent up to now is        0.3 secs

     End of band structure calculation

          k = 0.0000 0.0000 0.0000 (   189 PWs)   bands (ev):

   -20.2317  -6.1529  -0.4118  -0.4108   4.0187   7.9247   9.5566  10.7588

     occupation numbers 
     1.0000   1.0000   1.0000   1.0000  -0.0000  -0.0000  -0.0000  -0.0000

          k = 0.0000 0.2887 0.0000 (   178 PWs)   bands (ev):

   -18.6089  -5.8994  -4.3245  -2.3295   6.0906   9.1601   9.7621  10.9553

     occupation numbers 
     0.0000   0.0000   0.0000   0.0000  -0.0000  -0.0000  -0.0000  -0.0000

          k = 0.0000 0.2887 0.0000 (   178 PWs)   bands (ev):

   -18.6089  -5.8994  -4.3245  -2.3295   6.0906   9.1601   9.7621  10.9553

     occupation numbers 
     1.0000   1.0000   1.0000   1.0000  -0.0000  -0.0000  -0.0000  -0.0000

          k = 0.0000 0.5774 0.0000 (   182 PWs)   bands (ev):

   -14.6209 -12.7457  -3.8218  -0.4755   3.6500   7.9845  12.1640  12.3784

     occupation numbers 
     0.0000   0.0000   0.0000   0.0000  -0.0000  -0.0000  -0.0000  -0.0000

          k = 0.0000-0.5774 0.0000 (   182 PWs)   bands (ev):

   -14.6209 -12.7457  -3.8218  -0.4755   3.6500   7.9845  12.1640  12.3784

     occupation numbers 
     1.0000   1.0000   1.0000   1.0000  -0.0000  -0.0000  -0.0000  -0.0000

          k = 0.0000-0.2887 0.0000 (   178 PWs)   bands (ev):

   -18.6089  -5.8994  -4.3245  -2.3295   6.0906   9.1601   9.7621  10.9553

     occupation numbers 
     0.0000   0.0000   0.0000   0.0000  -0.0000  -0.0000  -0.0000  -0.0000

          k = 0.2500 0.4330 0.0000 (   177 PWs)   bands (ev):

   -15.4939  -9.9341  -7.1495  -0.8824   5.4074  10.2133  12.4562  14.7912

     occupation numbers 
     1.0000   1.0000   1.0000   1.0000  -0.0000  -0.0000  -0.0000  -0.0000

          k = 0.2500 0.7217 0.0000 (   177 PWs)   bands (ev):

   -15.4939  -9.9341  -7.1495  -0.8824   5.4074  10.2133  12.4562  14.7912

     occupation numbers 
     0.0000   0.0000   0.0000   0.0000  -0.0000  -0.0000  -0.0000  -0.0000

          k = 0.0000-0.2887 0.0000 (   178 PWs)   bands (ev):

   -18.6089  -5.8994  -4.3245  -2.3295   6.0906   9.1601   9.7621  10.9553

     occupation numbers 
     1.0000   1.0000   1.0000   1.0000  -0.0000  -0.0000  -0.0000  -0.0000

          k = 0.0000 0.0000 0.0000 (   189 PWs)   bands (ev):

   -20.2317  -6.1529  -0.4118  -0.4108   4.0187   7.9247   9.5566  10.7588

     occupation numbers 
     0.0000   0.0000   0.0000   0.0000  -0.0000  -0.0000  -0.0000  -0.0000

          k =-0.2500-0.1443 0.0000 (   178 PWs)   bands (ev):

   -18.6089  -5.8998  -4.3245  -2.3290   6.0906   9.1604   9.7622  10.9550

     occupation numbers 
     1.0000   1.0000   1.0000   1.0000  -0.0000  -0.0000  -0.0000  -0.0000

          k =-0.2500 0.1443 0.0000 (   178 PWs)   bands (ev):

   -18.6089  -5.8998  -4.3245  -2.3290   6.0906   9.1604   9.7622  10.9550

     occupation numbers 
     0.0000   0.0000   0.0000   0.0000  -0.0000  -0.0000  -0.0000  -0.0000

          k =-0.2500 0.1443 0.0000 (   178 PWs)   bands (ev):

   -18.6089  -5.8998  -4.3245  -2.3290   6.0906   9.1604   9.7622  10.9550

     occupation numbers 
     1.0000   1.0000   1.0000   1.0000  -0.0000  -0.0000  -0.0000  -0.0000

          k =-0.2500 0.4330 0.0000 (   177 PWs)   bands (ev):

   -15.4939  -9.9341  -7.1495  -0.8824   5.4074  10.2133  12.4562  14.7912

     occupation numbers 
     0.0000   0.0000   0.0000   0.0000  -0.0000  -0.0000  -0.0000  -0.0000

          k = 0.5000 0.2887 0.0000 (   182 PWs)   bands (ev):

   -14.6205 -12.7464  -3.8215  -0.4752   3.6495   7.9848  12.1640  12.3783

     occupation numbers 
     1.0000   1.0000   1.0000   1.0000  -0.0000  -0.0000  -0.0000  -0.0000

          k = 0.5000 0.5774 0.0000 (   177 PWs)   bands (ev):

   -15.4938  -9.9346  -7.1490  -0.8823   5.4071  10.2133  12.4564  14.7919

     occupation numbers 
     0.0000   0.0000   0.0000   0.0000  -0.0000  -0.0000  -0.0000  -0.0000

          k =-0.2500-0.4330 0.0000 (   177 PWs)   bands (ev):

   -15.4939  -9.9341  -7.1495  -0.8824   5.4074  10.2133  12.4562  14.7912

     occupation numbers 
     1.0000   1.0000   1.0000   1.0000  -0.0000  -0.0000  -0.0000  -0.0000

          k =-0.2500-0.1443 0.0000 (   178 PWs)   bands (ev):

   -18.6089  -5.8998  -4.3245  -2.3290   6.0906   9.1604   9.7622  10.9550

     occupation numbers 
     0.0000   0.0000   0.0000   0.0000  -0.0000  -0.0000  -0.0000  -0.0000

          k = 0.5000 0.0000 0.0000 (   177 PWs)   bands (ev):

   -15.4938  -9.9346  -7.1490  -0.8823   5.4071  10.2133  12.4564  14.7919

     occupation numbers 
     1.0000   1.0000   1.0000   1.0000  -0.0000  -0.0000  -0.0000  -0.0000

          k = 0.5000 0.2887 0.0000 (   182 PWs)   bands (ev):

   -14.6205 -12.7464  -3.8215  -0.4752   3.6495   7.9848  12.1640  12.3783

     occupation numbers 
     0.0000   0.0000   0.0000   0.0000  -0.0000  -0.0000  -0.0000  -0.0000

     the Fermi energy is     1.7941 ev

     Writing output data file gene.save

                                                                                

     bravais-lattice index     =            4
     lattice parameter (alat)  =       4.6074  a.u.
     unit-cell volume          =     254.1126 (a.u.)^3
     number of atoms/cell      =            2
     number of atomic types    =            1
     kinetic-energy cut-off    =      12.0000  Ry
     charge density cut-off    =      48.0000  Ry
     convergence threshold     =      1.0E-15
     beta                      =       0.7000
     number of iterations used =            4
     Exchange-correlation      = PBE ( 1  4  3  4 0 0)


     celldm(1)=    4.60742  celldm(2)=    0.00000  celldm(3)=    3.00000
     celldm(4)=    0.00000  celldm(5)=    0.00000  celldm(6)=    0.00000

     crystal axes: (cart. coord. in units of alat)
               a(1) = (  1.0000  0.0000  0.0000 )  
               a(2) = ( -0.5000  0.8660  0.0000 )  
               a(3) = (  0.0000  0.0000  3.0000 )  

     reciprocal axes: (cart. coord. in units 2 pi/alat)
               b(1) = (  1.0000  0.5774 -0.0000 )  
               b(2) = (  0.0000  1.1547  0.0000 )  
               b(3) = (  0.0000 -0.0000  0.3333 )  


     Atoms inside the unit cell: 

     Cartesian axes

     site n.  atom      mass           positions (alat units)
        1     C   12.0107   tau(    1) = (    0.50000    0.28868    0.00000  )
        2     C   12.0107   tau(    2) = (    0.50000   -0.28868    0.00000  )

     Computing dynamical matrix for 
                    q = (   0.0000000   0.2886751   0.0000000 )

      4 Sym.Ops. (no q -> -q+G )

                                    s                        frac. trans.

      isym =  1     identity                                     

 cryst.   s( 1) = (     1          0          0      )
                  (     0          1          0      )
                  (     0          0          1      )

 cart.    s( 1) = (  1.0000000  0.0000000  0.0000000 )
                  (  0.0000000  1.0000000  0.0000000 )
                  (  0.0000000  0.0000000  1.0000000 )


      isym =  2     inv. 180 deg rotation - cart. axis [0,0,1]   

 cryst.   s( 2) = (     1          0          0      )
                  (     0          1          0      )
                  (     0          0         -1      )

 cart.    s( 2) = (  1.0000000  0.0000000  0.0000000 )
                  (  0.0000000  1.0000000  0.0000000 )
                  (  0.0000000  0.0000000 -1.0000000 )


      isym =  3     180 deg rotation - cart. axis [0,1,0]        

 cryst.   s( 3) = (    -1          0          0      )
                  (     1          1          0      )
                  (     0          0         -1      )

 cart.    s( 3) = ( -1.0000000  0.0000000  0.0000000 )
                  (  0.0000000  1.0000000  0.0000000 )
                  (  0.0000000  0.0000000 -1.0000000 )


      isym =  4     inv. 180 deg rotation - cart. axis [1,0,0]   

 cryst.   s( 4) = (    -1          0          0      )
                  (     1          1          0      )
                  (     0          0          1      )

 cart.    s( 4) = ( -1.0000000  0.0000000  0.0000000 )
                  (  0.0000000  1.0000000  0.0000000 )
                  (  0.0000000  0.0000000  1.0000000 )


     G cutoff =   25.8106  (   1435 G-vectors)     FFT grid: ( 12, 12, 32)

     number of k points=    20  Methfessel-Paxton smearing, width (Ry)=  0.0200
                       cart. coord. in units 2pi/alat
        k(    1) = (   0.0000000   0.0000000   0.0000000), wk =   0.1250000
        k(    2) = (   0.0000000   0.2886751   0.0000000), wk =   0.0000000
        k(    3) = (   0.0000000   0.2886751   0.0000000), wk =   0.1250000
        k(    4) = (   0.0000000   0.5773503   0.0000000), wk =   0.0000000
        k(    5) = (   0.0000000  -0.5773503   0.0000000), wk =   0.1250000
        k(    6) = (   0.0000000  -0.2886751   0.0000000), wk =   0.0000000
        k(    7) = (   0.2500000   0.4330127   0.0000000), wk =   0.2500000
        k(    8) = (   0.2500000   0.7216878   0.0000000), wk =   0.0000000
        k(    9) = (   0.0000000  -0.2886751   0.0000000), wk =   0.1250000
        k(   10) = (   0.0000000   0.0000000   0.0000000), wk =   0.0000000
        k(   11) = (  -0.2500000  -0.1443376   0.0000000), wk =   0.2500000
        k(   12) = (  -0.2500000   0.1443376   0.0000000), wk =   0.0000000
        k(   13) = (  -0.2500000   0.1443376   0.0000000), wk =   0.2500000
        k(   14) = (  -0.2500000   0.4330127   0.0000000), wk =   0.0000000
        k(   15) = (   0.5000000   0.2886751   0.0000000), wk =   0.2500000
        k(   16) = (   0.5000000   0.5773503   0.0000000), wk =   0.0000000
        k(   17) = (  -0.2500000  -0.4330127   0.0000000), wk =   0.2500000
        k(   18) = (  -0.2500000  -0.1443376   0.0000000), wk =   0.0000000
        k(   19) = (   0.5000000   0.0000000   0.0000000), wk =   0.2500000
        k(   20) = (   0.5000000   0.2886751   0.0000000), wk =   0.0000000

                       cryst. coord.
        k(    1) = (   0.0000000   0.0000000   0.0000000), wk =   0.1250000
        k(    2) = (   0.0000000   0.2500000   0.0000000), wk =   0.0000000
        k(    3) = (   0.0000000   0.2500000   0.0000000), wk =   0.1250000
        k(    4) = (   0.0000000   0.5000000   0.0000000), wk =   0.0000000
        k(    5) = (   0.0000000  -0.5000000   0.0000000), wk =   0.1250000
        k(    6) = (   0.0000000  -0.2500000   0.0000000), wk =   0.0000000
        k(    7) = (   0.2500000   0.2500000   0.0000000), wk =   0.2500000
        k(    8) = (   0.2500000   0.5000000   0.0000000), wk =   0.0000000
        k(    9) = (   0.0000000  -0.2500000   0.0000000), wk =   0.1250000
        k(   10) = (   0.0000000   0.0000000   0.0000000), wk =   0.0000000
        k(   11) = (  -0.2500000   0.0000000   0.0000000), wk =   0.2500000
        k(   12) = (  -0.2500000   0.2500000   0.0000000), wk =   0.0000000
        k(   13) = (  -0.2500000   0.2500000   0.0000000), wk =   0.2500000
        k(   14) = (  -0.2500000   0.5000000   0.0000000), wk =   0.0000000
        k(   15) = (   0.5000000   0.0000000   0.0000000), wk =   0.2500000
        k(   16) = (   0.5000000   0.2500000   0.0000000), wk =   0.0000000
        k(   17) = (  -0.2500000  -0.2500000   0.0000000), wk =   0.2500000
        k(   18) = (  -0.2500000   0.0000000   0.0000000), wk =   0.0000000
        k(   19) = (   0.5000000  -0.2500000   0.0000000), wk =   0.2500000
        k(   20) = (   0.5000000   0.0000000   0.0000000), wk =   0.0000000

     PseudoPot. # 1 for  C read from file:
     /home/paulatto/ESPRESSO/espresso-5.4.0/D3Q/Examples/Graphene/UPF/C.pbe-mt_fhi.UPF
     MD5 check sum: 058ca341f9d6d5327d9962fd88a91b65
     Pseudo is Norm-conserving, Zval =  4.0
     Generated using FHI98PP, converted with fhi2upf.x v.5.0.2
     Using radial grid of  461 points,  3 beta functions with: 
                l(1) =   0
                l(2) =   1
                l(3) =   3

     point group C_2v (mm2) 
     there are  4 classes
     the character table:

       E     C2    s_v   s_v' 
A_1    1.00  1.00  1.00  1.00
A_2    1.00  1.00 -1.00 -1.00
B_1    1.00 -1.00  1.00 -1.00
B_2    1.00 -1.00 -1.00  1.00

     the symmetry operations in each class and the name of the first element:

     E        1
          identity                                               
     C2       3
          180 deg rotation - cart. axis [0,1,0]                  
     s_v      2
          inv. 180 deg rotation - cart. axis [0,0,1]             
     s_v'     4
          inv. 180 deg rotation - cart. axis [1,0,0]             


     Atomic displacements:
     There are   6 irreducible representations

     Representation     1      1 modes -A_1  D_1  S_1  To be done
     Irreps are as follows:

                     mode #   1
                     (  -0.00000   0.00000   ) 
                     (  -1.00000  -0.00000   ) 
                     (  -0.00000  -0.00000   ) 
                     (  -0.00000  -0.00000   ) 
                     (  -0.00000  -0.00000   ) 
                     (  -0.00000  -0.00000   ) 

     Representation     2      1 modes -A_1  D_1  S_1  To be done
     Irreps are as follows:

                     mode #   2
                     (  -0.00000  -0.00000   ) 
                     (  -0.00000  -0.00000   ) 
                     (  -0.00000  -0.00000   ) 
                     (  -0.00000  -0.00000   ) 
                     (  -1.00000  -0.00000   ) 
                     (  -0.00000   0.00000   ) 

     Representation     3      1 modes -B_1  D_3  S_3  To be done
     Irreps are as follows:

                     mode #   3
                     (  -1.00000  -0.00000   ) 
                     (  -0.00000  -0.00000   ) 
                     (  -0.00000  -0.00000   ) 
                     (  -0.00000  -0.00000   ) 
                     (  -0.00000  -0.00000   ) 
                     (  -0.00000  -0.00000   ) 

     Representation     4      1 modes -B_1  D_3  S_3  To be done
     Irreps are as follows:

                     mode #   4
                     (  -0.00000   0.00000   ) 
                     (  -0.00000   0.00000   ) 
                     (  -0.00000   0.00000   ) 
                     (  -1.00000  -0.00000   ) 
                     (  -0.00000  -0.00000   ) 
                     (  -0.00000  -0.00000   ) 

     Representation     5      1 modes -B_2  D_4  S_4  To be done
     Irreps are as follows:

                     mode #   5
                     (  -0.00000  -0.00000   ) 
                     (  -0.00000  -0.00000   ) 
                     (  -0.00000  -0.00000   ) 
                     (  -0.00000  -0.00000   ) 
                     (  -0.00000   0.00000   ) 
                     (  -1.00000  -0.00000   ) 

     Representation     6      1 modes -B_2  D_4  S_4  To be done
     Irreps are as follows:

                     mode #   6
                     (  -0.00000   0.00000   ) 
                     (  -0.00000   0.00000   ) 
                     (  -1.00000  -0.00000   ) 
                     (  -0.00000  -0.00000   ) 
                     (  -0.00000  -0.00000   ) 
                     (  -0.00000  -0.00000   ) 



     Alpha used in Ewald sum =   0.5000
     PHONON       :     1.06s CPU         1.12s WALL



     Representation #  1 mode #   1

     Self-consistent Calculation

      iter #   1 total cpu time :     1.1 secs   av.it.:   5.3
      thresh= 1.000E-02 alpha_mix =  0.700 |ddv_scf|^2 =  9.567E-04

      iter #   2 total cpu time :     1.2 secs   av.it.:   6.6
      thresh= 3.093E-03 alpha_mix =  0.700 |ddv_scf|^2 =  3.081E-03

      iter #   3 total cpu time :     1.2 secs   av.it.:   5.5
      thresh= 5.550E-03 alpha_mix =  0.700 |ddv_scf|^2 =  4.253E-07

      iter #   4 total cpu time :     1.2 secs   av.it.:   7.4
      thresh= 6.521E-05 alpha_mix =  0.700 |ddv_scf|^2 =  1.872E-08

      iter #   5 total cpu time :     1.3 secs   av.it.:   7.1
      thresh= 1.368E-05 alpha_mix =  0.700 |ddv_scf|^2 =  1.866E-10

      iter #   6 total cpu time :     1.3 secs   av.it.:   6.7
      thresh= 1.366E-06 alpha_mix =  0.700 |ddv_scf|^2 =  6.545E-11

      iter #   7 total cpu time :     1.3 secs   av.it.:   5.9
      thresh= 8.090E-07 alpha_mix =  0.700 |ddv_scf|^2 =  1.927E-11

      iter #   8 total cpu time :     1.4 secs   av.it.:   6.0
      thresh= 4.390E-07 alpha_mix =  0.700 |ddv_scf|^2 =  1.806E-12

      iter #   9 total cpu time :     1.4 secs   av.it.:   6.0
      thresh= 1.344E-07 alpha_mix =  0.700 |ddv_scf|^2 =  1.160E-14

      iter #  10 total cpu time :     1.4 secs   av.it.:   7.0
      thresh= 1.077E-08 alpha_mix =  0.700 |ddv_scf|^2 =  5.521E-16

     End of self-consistent calculation

     Convergence has been achieved 


     Representation #  2 mode #   2

     Self-consistent Calculation

      iter #   1 total cpu time :     1.5 secs   av.it.:   5.3
      thresh= 1.000E-02 alpha_mix =  0.700 |ddv_scf|^2 =  9.567E-04

      iter #   2 total cpu time :     1.5 secs   av.it.:   6.6
      thresh= 3.093E-03 alpha_mix =  0.700 |ddv_scf|^2 =  3.081E-03

      iter #   3 total cpu time :     1.5 secs   av.it.:   5.5
      thresh= 5.550E-03 alpha_mix =  0.700 |ddv_scf|^2 =  4.253E-07

      iter #   4 total cpu time :     1.5 secs   av.it.:   7.4
      thresh= 6.521E-05 alpha_mix =  0.700 |ddv_scf|^2 =  1.872E-08

      iter #   5 total cpu time :     1.6 secs   av.it.:   7.1
      thresh= 1.368E-05 alpha_mix =  0.700 |ddv_scf|^2 =  1.866E-10

      iter #   6 total cpu time :     1.6 secs   av.it.:   6.7
      thresh= 1.366E-06 alpha_mix =  0.700 |ddv_scf|^2 =  6.545E-11

      iter #   7 total cpu time :     1.6 secs   av.it.:   5.9
      thresh= 8.090E-07 alpha_mix =  0.700 |ddv_scf|^2 =  1.927E-11

      iter #   8 total cpu time :     1.7 secs   av.it.:   6.0
      thresh= 4.390E-07 alpha_mix =  0.700 |ddv_scf|^2 =  1.806E-12

      iter #   9 total cpu time :     1.7 secs   av.it.:   6.0
      thresh= 1.344E-07 alpha_mix =  0.700 |ddv_scf|^2 =  1.160E-14

      iter #  10 total cpu time :     1.7 secs   av.it.:   7.0
      thresh= 1.077E-08 alpha_mix =  0.700 |ddv_scf|^2 =  5.521E-16

     End of self-consistent calculation

     Convergence has been achieved 


     Representation #  3 mode #   3

     Self-consistent Calculation

      iter #   1 total cpu time :     1.8 secs   av.it.:   4.8
      thresh= 1.000E-02 alpha_mix =  0.700 |ddv_scf|^2 =  5.662E-06

      iter #   2 total cpu time :     1.8 secs   av.it.:   7.0
      thresh= 2.379E-04 alpha_mix =  0.700 |ddv_scf|^2 =  2.998E-08

      iter #   3 total cpu time :     1.8 secs   av.it.:   6.8
      thresh= 1.732E-05 alpha_mix =  0.700 |ddv_scf|^2 =  9.286E-10

      iter #   4 total cpu time :     1.9 secs   av.it.:   6.6
      thresh= 3.047E-06 alpha_mix =  0.700 |ddv_scf|^2 =  1.269E-11

      iter #   5 total cpu time :     1.9 secs   av.it.:   6.7
      thresh= 3.562E-07 alpha_mix =  0.700 |ddv_scf|^2 =  4.623E-14

      iter #   6 total cpu time :     1.9 secs   av.it.:   6.7
      thresh= 2.150E-08 alpha_mix =  0.700 |ddv_scf|^2 =  3.228E-16

     End of self-consistent calculation

     Convergence has been achieved 


     Representation #  4 mode #   4

     Self-consistent Calculation

      iter #   1 total cpu time :     2.0 secs   av.it.:   4.8
      thresh= 1.000E-02 alpha_mix =  0.700 |ddv_scf|^2 =  5.662E-06

      iter #   2 total cpu time :     2.0 secs   av.it.:   7.0
      thresh= 2.379E-04 alpha_mix =  0.700 |ddv_scf|^2 =  2.998E-08

      iter #   3 total cpu time :     2.0 secs   av.it.:   6.8
      thresh= 1.732E-05 alpha_mix =  0.700 |ddv_scf|^2 =  9.286E-10

      iter #   4 total cpu time :     2.1 secs   av.it.:   6.6
      thresh= 3.047E-06 alpha_mix =  0.700 |ddv_scf|^2 =  1.269E-11

      iter #   5 total cpu time :     2.1 secs   av.it.:   6.7
      thresh= 3.562E-07 alpha_mix =  0.700 |ddv_scf|^2 =  4.623E-14

      iter #   6 total cpu time :     2.1 secs   av.it.:   6.7
      thresh= 2.150E-08 alpha_mix =  0.700 |ddv_scf|^2 =  3.228E-16

     End of self-consistent calculation

     Convergence has been achieved 


     Representation #  5 mode #   5

     Self-consistent Calculation

      iter #   1 total cpu time :     2.2 secs   av.it.:   5.3
      thresh= 1.000E-02 alpha_mix =  0.700 |ddv_scf|^2 =  8.244E-05

      iter #   2 total cpu time :     2.2 secs   av.it.:   7.0
      thresh= 9.080E-04 alpha_mix =  0.700 |ddv_scf|^2 =  1.710E-05

      iter #   3 total cpu time :     2.2 secs   av.it.:   6.7
      thresh= 4.135E-04 alpha_mix =  0.700 |ddv_scf|^2 =  7.082E-09

      iter #   4 total cpu time :     2.2 secs   av.it.:   6.6
      thresh= 8.415E-06 alpha_mix =  0.700 |ddv_scf|^2 =  1.790E-10

      iter #   5 total cpu time :     2.3 secs   av.it.:   6.5
      thresh= 1.338E-06 alpha_mix =  0.700 |ddv_scf|^2 =  8.665E-13

      iter #   6 total cpu time :     2.3 secs   av.it.:   6.4
      thresh= 9.309E-08 alpha_mix =  0.700 |ddv_scf|^2 =  2.852E-14

      iter #   7 total cpu time :     2.3 secs   av.it.:   6.3
      thresh= 1.689E-08 alpha_mix =  0.700 |ddv_scf|^2 =  2.945E-16

     End of self-consistent calculation

     Convergence has been achieved 


     Representation #  6 mode #   6

     Self-consistent Calculation

      iter #   1 total cpu time :     2.4 secs   av.it.:   5.3
      thresh= 1.000E-02 alpha_mix =  0.700 |ddv_scf|^2 =  8.244E-05

      iter #   2 total cpu time :     2.4 secs   av.it.:   7.0
      thresh= 9.080E-04 alpha_mix =  0.700 |ddv_scf|^2 =  1.710E-05

      iter #   3 total cpu time :     2.4 secs   av.it.:   6.7
      thresh= 4.135E-04 alpha_mix =  0.700 |ddv_scf|^2 =  7.082E-09

      iter #   4 total cpu time :     2.5 secs   av.it.:   6.6
      thresh= 8.415E-06 alpha_mix =  0.700 |ddv_scf|^2 =  1.790E-10

      iter #   5 total cpu time :     2.5 secs   av.it.:   6.5
      thresh= 1.338E-06 alpha_mix =  0.700 |ddv_scf|^2 =  8.665E-13

      iter #   6 total cpu time :     2.5 secs   av.it.:   6.4
      thresh= 9.309E-08 alpha_mix =  0.700 |ddv_scf|^2 =  2.852E-14

      iter #   7 total cpu time :     2.6 secs   av.it.:   6.3
      thresh= 1.689E-08 alpha_mix =  0.700 |ddv_scf|^2 =  2.945E-16

     End of self-consistent calculation

     Convergence has been achieved 

     Number of q in the star =    6
     List of q in the star:
          1   0.000000000   0.288675135   0.000000000
          2   0.000000000  -0.288675135   0.000000000
          3  -0.250000000  -0.144337567   0.000000000
          4   0.250000000  -0.144337567   0.000000000
          5  -0.250000000   0.144337567   0.000000000
          6   0.250000000   0.144337567   0.000000000

     Diagonalizing the dynamical matrix

     q = (    0.000000000   0.288675135   0.000000000 ) 

 **************************************************************************
     freq (    1) =      -6.011124 [THz] =    -200.509526 [cm-1]
     freq (    2) =      13.496369 [THz] =     450.190412 [cm-1]
     freq (    3) =      17.779305 [THz] =     593.053770 [cm-1]
     freq (    4) =      24.861919 [THz] =     829.304364 [cm-1]
     freq (    5) =      43.981083 [THz] =    1467.051004 [cm-1]
     freq (    6) =      47.375930 [THz] =    1580.290911 [cm-1]
 **************************************************************************

     Mode symmetry, C_2v (mm2)  point group:

     freq (  1 -  1) =       -200.5  [cm-1]   --> B_2  D_4  S_4      
     freq (  2 -  2) =        450.2  [cm-1]   --> B_1  D_3  S_3      
     freq (  3 -  3) =        593.1  [cm-1]   --> B_2  D_4  S_4      
     freq (  4 -  4) =        829.3  [cm-1]   --> A_1  D_1  S_1      
     freq (  5 -  5) =       1467.1  [cm-1]   --> B_1  D_3  S_3      
     freq (  6 -  6) =       1580.3  [cm-1]   --> A_1  D_1  S_1      

     Number of q in the star =    6
     List of q in the star:
          1   0.000000000   0.288675135   0.000000000
          2   0.000000000  -0.288675135   0.000000000
          3  -0.250000000  -0.144337567   0.000000000
          4   0.250000000  -0.144337567   0.000000000
          5  -0.250000000   0.144337567   0.000000000
          6   0.250000000   0.144337567   0.000000000
       Writing drho for q = (  0.000000  0.288675  0.000000) on file "drho_rot.0_1o4_0"
[...]
        k(    2) = (   0.2500000   0.2500000   0.0000000), wk =   0.0000000
        k(    3) = (   0.0000000   0.2500000   0.0000000), wk =   0.2500000
        k(    4) = (   0.2500000   0.5000000   0.0000000), wk =   0.0000000
        k(    5) = (   0.0000000  -0.5000000   0.0000000), wk =   0.2500000
        k(    6) = (   0.2500000  -0.2500000   0.0000000), wk =   0.0000000
        k(    7) = (   0.2500000   0.2500000   0.0000000), wk =   0.1250000
        k(    8) = (   0.5000000   0.5000000   0.0000000), wk =   0.0000000
        k(    9) = (   0.0000000  -0.2500000   0.0000000), wk =   0.2500000
        k(   10) = (   0.2500000  -0.0000000   0.0000000), wk =   0.0000000
        k(   11) = (   0.2500000  -0.2500000   0.0000000), wk =   0.2500000
        k(   12) = (   0.5000000  -0.0000000   0.0000000), wk =   0.0000000
        k(   13) = (  -0.5000000   0.5000000   0.0000000), wk =   0.1250000
        k(   14) = (  -0.2500000   0.7500000   0.0000000), wk =   0.0000000
        k(   15) = (  -0.2500000  -0.2500000   0.0000000), wk =   0.1250000
        k(   16) = (   0.0000000   0.0000000   0.0000000), wk =   0.0000000
        k(   17) = (   0.2500000  -0.5000000   0.0000000), wk =   0.2500000
        k(   18) = (   0.5000000  -0.2500000   0.0000000), wk =   0.0000000
        k(   19) = (   0.5000000  -0.2500000   0.0000000), wk =   0.2500000
        k(   20) = (   0.7500000  -0.0000000   0.0000000), wk =   0.0000000

     PseudoPot. # 1 for  C read from file:
     /home/paulatto/ESPRESSO/espresso-5.4.0/D3Q/Examples/Graphene/UPF/C.pbe-mt_fhi.UPF
     MD5 check sum: 058ca341f9d6d5327d9962fd88a91b65
     Pseudo is Norm-conserving, Zval =  4.0
     Generated using FHI98PP, converted with fhi2upf.x v.5.0.2
     Using radial grid of  461 points,  3 beta functions with: 
                l(1) =   0
                l(2) =   1
                l(3) =   3

     point group C_2v (mm2) 
     there are  4 classes
     the character table:

       E     C2    s_v   s_v' 
A_1    1.00  1.00  1.00  1.00
A_2    1.00  1.00 -1.00 -1.00
B_1    1.00 -1.00  1.00 -1.00
B_2    1.00 -1.00 -1.00  1.00

     the symmetry operations in each class and the name of the first element:

     E        1
          identity                                               
     C2       3
          180 deg rotation - cryst. axis [1,1,0]                 
     s_v      2
          inv. 180 deg rotation - cart. axis [0,0,1]             
     s_v'     4
          inv. 180 deg rotation - cryst. axis [1,-1,0]           


     Atomic displacements:
     There are   6 irreducible representations

     Representation     1      1 modes -A_1  D_1  S_1  To be done
     Irreps are as follows:

                     mode #   1
                     (  -0.41720  -0.00000   ) 
                     (  -0.35820   0.44457   ) 
                     (   0.00000  -0.00000   ) 
                     (   0.38501   0.10160   ) 
                     (   0.22230   0.54040   ) 
                     (   0.00000  -0.00000   ) 

     Representation     2      1 modes -A_1  D_1  S_1  To be done
     Irreps are as follows:

                     mode #   2
                     (  -0.57092  -0.00000   ) 
                     (   0.26175  -0.32487   ) 
                     (   0.00000   0.00000   ) 
                     (  -0.28136  -0.51213   ) 
                     (  -0.16242   0.36356   ) 
                     (   0.00000  -0.00000   ) 

     Representation     3      1 modes -A_2  D_2  S_2  To be done
     Irreps are as follows:

                     mode #   3
                     (  -0.00000  -0.00000   ) 
                     (  -0.00000  -0.00000   ) 
                     (  -0.70711  -0.00000   ) 
                     (  -0.00000  -0.00000   ) 
                     (  -0.00000  -0.00000   ) 
                     (  -0.00002  -0.70711   ) 

     Representation     4      1 modes -B_1  D_3  S_3  To be done
     Irreps are as follows:

                     mode #   4
                     (  -0.57808  -0.00000   ) 
                     (  -0.27388   0.30136   ) 
                     (  -0.00000   0.00000   ) 
                     (  -0.26098   0.05186   ) 
                     (  -0.15070  -0.63757   ) 
                     (   0.00000  -0.00000   ) 

     Representation     5      1 modes -B_1  D_3  S_3  To be done
     Irreps are as follows:

                     mode #   5
                     (  -0.40722  -0.00000   ) 
                     (   0.38879  -0.42780   ) 
                     (  -0.00000  -0.00000   ) 
                     (   0.37050   0.54030   ) 
                     (   0.21390  -0.15827   ) 
                     (  -0.00000   0.00000   ) 

     Representation     6      1 modes -B_2  D_4  S_4  To be done
     Irreps are as follows:

                     mode #   6
                     (   0.00000  -0.00000   ) 
                     (   0.00000  -0.00000   ) 
                     (  -0.70711  -0.00000   ) 
                     (   0.00000  -0.00000   ) 
                     (   0.00000  -0.00000   ) 
                     (   0.00002   0.70711   ) 



     Alpha used in Ewald sum =   0.5000
     PHONON       :     3.91s CPU         4.14s WALL



     Representation #  1 mode #   1

     Self-consistent Calculation

      iter #   1 total cpu time :     4.2 secs   av.it.:   5.1
      thresh= 1.000E-02 alpha_mix =  0.700 |ddv_scf|^2 =  2.935E-04

      iter #   2 total cpu time :     4.2 secs   av.it.:   7.0
      thresh= 1.713E-03 alpha_mix =  0.700 |ddv_scf|^2 =  3.589E-04

      iter #   3 total cpu time :     4.2 secs   av.it.:   6.0
      thresh= 1.895E-03 alpha_mix =  0.700 |ddv_scf|^2 =  4.930E-08

      iter #   4 total cpu time :     4.3 secs   av.it.:   7.3
      thresh= 2.220E-05 alpha_mix =  0.700 |ddv_scf|^2 =  3.744E-09

      iter #   5 total cpu time :     4.3 secs   av.it.:   6.9
      thresh= 6.119E-06 alpha_mix =  0.700 |ddv_scf|^2 =  3.468E-11

      iter #   6 total cpu time :     4.3 secs   av.it.:   6.5
      thresh= 5.889E-07 alpha_mix =  0.700 |ddv_scf|^2 =  4.284E-13

      iter #   7 total cpu time :     4.4 secs   av.it.:   6.8
      thresh= 6.545E-08 alpha_mix =  0.700 |ddv_scf|^2 =  1.285E-14

      iter #   8 total cpu time :     4.4 secs   av.it.:   6.9
      thresh= 1.134E-08 alpha_mix =  0.700 |ddv_scf|^2 =  2.129E-15

      iter #   9 total cpu time :     4.4 secs   av.it.:   6.8
      thresh= 4.614E-09 alpha_mix =  0.700 |ddv_scf|^2 =  7.416E-16

     End of self-consistent calculation

     Convergence has been achieved 


     Representation #  2 mode #   2

     Self-consistent Calculation

      iter #   1 total cpu time :     4.5 secs   av.it.:   5.3
      thresh= 1.000E-02 alpha_mix =  0.700 |ddv_scf|^2 =  8.746E-05

      iter #   2 total cpu time :     4.5 secs   av.it.:   7.1
      thresh= 9.352E-04 alpha_mix =  0.700 |ddv_scf|^2 =  4.527E-05

      iter #   3 total cpu time :     4.5 secs   av.it.:   6.5
      thresh= 6.728E-04 alpha_mix =  0.700 |ddv_scf|^2 =  2.335E-06

      iter #   4 total cpu time :     4.6 secs   av.it.:   6.6
      thresh= 1.528E-04 alpha_mix =  0.700 |ddv_scf|^2 =  3.287E-09

      iter #   5 total cpu time :     4.6 secs   av.it.:   6.8
      thresh= 5.733E-06 alpha_mix =  0.700 |ddv_scf|^2 =  6.377E-11

      iter #   6 total cpu time :     4.6 secs   av.it.:   6.6
      thresh= 7.986E-07 alpha_mix =  0.700 |ddv_scf|^2 =  3.097E-13

      iter #   7 total cpu time :     4.7 secs   av.it.:   6.7
      thresh= 5.565E-08 alpha_mix =  0.700 |ddv_scf|^2 =  1.591E-14

      iter #   8 total cpu time :     4.7 secs   av.it.:   6.9
      thresh= 1.261E-08 alpha_mix =  0.700 |ddv_scf|^2 =  7.222E-15

      iter #   9 total cpu time :     4.7 secs   av.it.:   6.3
      thresh= 8.498E-09 alpha_mix =  0.700 |ddv_scf|^2 =  8.263E-17

     End of self-consistent calculation

     Convergence has been achieved 


     Representation #  3 mode #   3

     Self-consistent Calculation

      iter #   1 total cpu time :     4.8 secs   av.it.:   4.8
      thresh= 1.000E-02 alpha_mix =  0.700 |ddv_scf|^2 =  3.653E-06

      iter #   2 total cpu time :     4.8 secs   av.it.:   7.2
      thresh= 1.911E-04 alpha_mix =  0.700 |ddv_scf|^2 =  1.933E-08

      iter #   3 total cpu time :     4.8 secs   av.it.:   5.7
      thresh= 1.390E-05 alpha_mix =  0.700 |ddv_scf|^2 =  1.659E-09

      iter #   4 total cpu time :     4.8 secs   av.it.:   5.9
      thresh= 4.073E-06 alpha_mix =  0.700 |ddv_scf|^2 =  2.284E-12

      iter #   5 total cpu time :     4.9 secs   av.it.:   6.4
      thresh= 1.511E-07 alpha_mix =  0.700 |ddv_scf|^2 =  6.690E-15

      iter #   6 total cpu time :     4.9 secs   av.it.:   6.6
      thresh= 8.179E-09 alpha_mix =  0.700 |ddv_scf|^2 =  3.075E-16

     End of self-consistent calculation

     Convergence has been achieved 


     Representation #  4 mode #   4

     Self-consistent Calculation

      iter #   1 total cpu time :     5.0 secs   av.it.:   5.0
      thresh= 1.000E-02 alpha_mix =  0.700 |ddv_scf|^2 =  4.985E-05

      iter #   2 total cpu time :     5.0 secs   av.it.:   7.1
      thresh= 7.060E-04 alpha_mix =  0.700 |ddv_scf|^2 =  1.801E-05

      iter #   3 total cpu time :     5.0 secs   av.it.:   6.7
      thresh= 4.243E-04 alpha_mix =  0.700 |ddv_scf|^2 =  1.682E-08

      iter #   4 total cpu time :     5.0 secs   av.it.:   6.8
      thresh= 1.297E-05 alpha_mix =  0.700 |ddv_scf|^2 =  1.891E-10

      iter #   5 total cpu time :     5.1 secs   av.it.:   6.1
      thresh= 1.375E-06 alpha_mix =  0.700 |ddv_scf|^2 =  3.548E-13

      iter #   6 total cpu time :     5.1 secs   av.it.:   6.8
      thresh= 5.956E-08 alpha_mix =  0.700 |ddv_scf|^2 =  1.182E-14

      iter #   7 total cpu time :     5.1 secs   av.it.:   6.9
      thresh= 1.087E-08 alpha_mix =  0.700 |ddv_scf|^2 =  2.579E-16

     End of self-consistent calculation

     Convergence has been achieved 


     Representation #  5 mode #   5

     Self-consistent Calculation

      iter #   1 total cpu time :     5.2 secs   av.it.:   4.8
      thresh= 1.000E-02 alpha_mix =  0.700 |ddv_scf|^2 =  6.045E-06

      iter #   2 total cpu time :     5.2 secs   av.it.:   7.1
      thresh= 2.459E-04 alpha_mix =  0.700 |ddv_scf|^2 =  2.122E-06

      iter #   3 total cpu time :     5.3 secs   av.it.:   6.7
      thresh= 1.457E-04 alpha_mix =  0.700 |ddv_scf|^2 =  5.962E-09

      iter #   4 total cpu time :     5.3 secs   av.it.:   6.8
      thresh= 7.722E-06 alpha_mix =  0.700 |ddv_scf|^2 =  1.135E-10

      iter #   5 total cpu time :     5.3 secs   av.it.:   6.5
      thresh= 1.065E-06 alpha_mix =  0.700 |ddv_scf|^2 =  3.033E-13

      iter #   6 total cpu time :     5.3 secs   av.it.:   6.9
      thresh= 5.507E-08 alpha_mix =  0.700 |ddv_scf|^2 =  4.848E-15

      iter #   7 total cpu time :     5.4 secs   av.it.:   6.5
      thresh= 6.963E-09 alpha_mix =  0.700 |ddv_scf|^2 =  1.742E-16

     End of self-consistent calculation

     Convergence has been achieved 


     Representation #  6 mode #   6

     Self-consistent Calculation

      iter #   1 total cpu time :     5.4 secs   av.it.:   5.5
      thresh= 1.000E-02 alpha_mix =  0.700 |ddv_scf|^2 =  2.560E-05

      iter #   2 total cpu time :     5.5 secs   av.it.:   7.2
      thresh= 5.060E-04 alpha_mix =  0.700 |ddv_scf|^2 =  8.017E-07

      iter #   3 total cpu time :     5.5 secs   av.it.:   6.9
      thresh= 8.954E-05 alpha_mix =  0.700 |ddv_scf|^2 =  5.176E-09

      iter #   4 total cpu time :     5.5 secs   av.it.:   6.2
      thresh= 7.195E-06 alpha_mix =  0.700 |ddv_scf|^2 =  8.941E-12

      iter #   5 total cpu time :     5.5 secs   av.it.:   6.6
      thresh= 2.990E-07 alpha_mix =  0.700 |ddv_scf|^2 =  3.663E-13

      iter #   6 total cpu time :     5.6 secs   av.it.:   6.2
      thresh= 6.052E-08 alpha_mix =  0.700 |ddv_scf|^2 =  2.022E-15

      iter #   7 total cpu time :     5.6 secs   av.it.:   6.7
      thresh= 4.497E-09 alpha_mix =  0.700 |ddv_scf|^2 =  3.034E-17

     End of self-consistent calculation

     Convergence has been achieved 

     Number of q in the star =    6
     List of q in the star:
          1   0.250000000   0.433012702   0.000000000
          2  -0.250000000  -0.433012702   0.000000000
          3   0.250000000  -0.433012702   0.000000000
          4   0.500000000   0.000000000   0.000000000
          5  -0.500000000   0.000000000   0.000000000
          6  -0.250000000   0.433012702   0.000000000

     Diagonalizing the dynamical matrix

     q = (    0.250000000   0.433012702   0.000000000 ) 

 **************************************************************************
     freq (    1) =       1.964032 [THz] =      65.513065 [cm-1]
     freq (    2) =      14.600016 [THz] =     487.004119 [cm-1]
     freq (    3) =      25.216829 [THz] =     841.142889 [cm-1]
     freq (    4) =      32.391495 [THz] =    1080.463980 [cm-1]
     freq (    5) =      42.357211 [THz] =    1412.884465 [cm-1]
     freq (    6) =      42.411912 [THz] =    1414.709114 [cm-1]
 **************************************************************************

     Mode symmetry, C_2v (mm2)  point group:

     freq (  1 -  1) =         65.5  [cm-1]   --> B_2  D_4  S_4      
     freq (  2 -  2) =        487.0  [cm-1]   --> A_2  D_2  S_2      
     freq (  3 -  3) =        841.1  [cm-1]   --> B_1  D_3  S_3      
     freq (  4 -  4) =       1080.5  [cm-1]   --> A_1  D_1  S_1      
     freq (  5 -  5) =       1412.9  [cm-1]   --> A_1  D_1  S_1      
     freq (  6 -  6) =       1414.7  [cm-1]   --> B_1  D_3  S_3      

     Number of q in the star =    6
     List of q in the star:
          1   0.250000000   0.433012702   0.000000000
          2  -0.250000000  -0.433012702   0.000000000
          3   0.250000000  -0.433012702   0.000000000
          4   0.500000000   0.000000000   0.000000000
          5  -0.500000000   0.000000000   0.000000000
          6  -0.250000000   0.433012702   0.000000000
       Writing drho for q = (  0.250000  0.433013  0.000000) on file "drho_rot.1o4_1o4_0"
       Writing drho for q = ( -0.250000 -0.433013  0.000000) on file "drho_rot.-1o4_-1o4_0"
       Writing drho for q = (  0.250000 -0.433013  0.000000) on file "drho_rot.1o4_-1o2_0"
       Writing drho for q = (  0.500000  0.000000  0.000000) on file "drho_rot.1o2_-1o4_0"
       Writing drho for q = ( -0.500000  0.000000  0.000000) on file "drho_rot.-1o2_1o4_0"
       Writing drho for q = ( -0.250000  0.433013  0.000000) on file "drho_rot.-1o4_1o2_0"

     init_run     :      0.10s CPU      0.10s WALL (       3 calls)
     electrons    :      0.57s CPU      0.60s WALL (       3 calls)

     Called by init_run:
     wfcinit      :      0.00s CPU      0.00s WALL (       3 calls)
     potinit      :      0.01s CPU      0.01s WALL (       3 calls)

     Called by electrons:
     c_bands      :      0.57s CPU      0.60s WALL (       3 calls)
     v_of_rho     :      0.01s CPU      0.01s WALL (       4 calls)
     v_h          :      0.00s CPU      0.00s WALL (       4 calls)
     v_xc         :      0.01s CPU      0.01s WALL (       4 calls)

     Called by c_bands:
     init_us_2    :      0.17s CPU      0.19s WALL (    1592 calls)
     cegterg      :      0.42s CPU      0.43s WALL (      54 calls)

     Called by sum_band:

     Called by *egterg:
     h_psi        :      0.32s CPU      0.34s WALL (     708 calls)
     g_psi        :      0.00s CPU      0.00s WALL (     600 calls)
     cdiaghg      :      0.10s CPU      0.10s WALL (     654 calls)
     cegterg:over :      0.03s CPU      0.04s WALL (     600 calls)
     cegterg:upda :      0.03s CPU      0.03s WALL (     600 calls)
     cegterg:last :      0.03s CPU      0.02s WALL (     162 calls)

     Called by h_psi:
     h_psi:vloc   :      0.26s CPU      0.27s WALL (     708 calls)
     h_psi:vnl    :      0.06s CPU      0.07s WALL (     708 calls)
     add_vuspsi   :      0.26s CPU      0.27s WALL (   11131 calls)

     General routines
     calbec       :      0.48s CPU      0.51s WALL (   22624 calls)
     fft          :      0.03s CPU      0.05s WALL (    1926 calls)
     ffts         :      0.00s CPU      0.01s WALL (     382 calls)
     fftw         :      1.93s CPU      1.98s WALL (  104276 calls)
     davcio       :      0.07s CPU      0.06s WALL (    8045 calls)

     Parallel routines
     fft_scatter  :      0.35s CPU      0.35s WALL (  106584 calls)

     PHONON       :     5.31s CPU         5.63s WALL

     INITIALIZATION: 
     phq_setup    :      0.04s CPU      0.05s WALL (       4 calls)
     phq_init     :      0.12s CPU      0.12s WALL (       4 calls)

     phq_init     :      0.12s CPU      0.12s WALL (       4 calls)
     init_vloc    :      0.01s CPU      0.00s WALL (       4 calls)
     init_us_1    :      0.04s CPU      0.04s WALL (       4 calls)

     DYNAMICAL MATRIX:
     dynmat0      :      0.03s CPU      0.03s WALL (       4 calls)
     phqscf       :      4.20s CPU      4.46s WALL (       4 calls)
     dynmatrix    :      0.00s CPU      0.01s WALL (       4 calls)

     phqscf       :      4.20s CPU      4.46s WALL (       4 calls)
     solve_linter :      4.10s CPU      4.34s WALL (      22 calls)
     drhodv       :      0.07s CPU      0.08s WALL (      22 calls)

     dynmat0      :      0.03s CPU      0.03s WALL (       4 calls)
     dynmat_us    :      0.02s CPU      0.03s WALL (       4 calls)
     d2ionq       :      0.00s CPU      0.00s WALL (       4 calls)

     dynmat_us    :      0.02s CPU      0.03s WALL (       4 calls)

     phqscf       :      4.20s CPU      4.46s WALL (       4 calls)
     solve_linter :      4.10s CPU      4.34s WALL (      22 calls)

     solve_linter :      4.10s CPU      4.34s WALL (      22 calls)
     dvqpsi_us    :      0.11s CPU      0.13s WALL (     186 calls)
     ortho        :      0.05s CPU      0.04s WALL (    1322 calls)
     cgsolve      :      2.72s CPU      2.88s WALL (    1322 calls)
     incdrhoscf   :      0.24s CPU      0.27s WALL (    1322 calls)
     vpsifft      :      0.23s CPU      0.24s WALL (    1136 calls)
     dv_of_drho   :      0.07s CPU      0.09s WALL (     164 calls)
     mix_pot      :      0.04s CPU      0.04s WALL (     154 calls)
     ef_shift     :      0.00s CPU      0.00s WALL (      27 calls)
     localdos     :      0.02s CPU      0.02s WALL (       4 calls)
     psymdvscf    :      0.26s CPU      0.25s WALL (     154 calls)

     dvqpsi_us    :      0.11s CPU      0.13s WALL (     186 calls)
     dvqpsi_us_on :      0.03s CPU      0.04s WALL (     186 calls)

     cgsolve      :      2.72s CPU      2.88s WALL (    1322 calls)
     ch_psi       :      2.63s CPU      2.78s WALL (   10423 calls)

     ch_psi       :      2.63s CPU      2.78s WALL (   10423 calls)
     h_psiq       :      2.22s CPU      2.37s WALL (   10423 calls)
     last         :      0.35s CPU      0.37s WALL (   10423 calls)

     h_psiq       :      2.22s CPU      2.37s WALL (   10423 calls)
     firstfft     :      0.76s CPU      0.76s WALL (   35304 calls)
     secondfft    :      0.76s CPU      0.83s WALL (   35304 calls)
     add_vuspsi   :      0.26s CPU      0.27s WALL (   11131 calls)

     incdrhoscf   :      0.24s CPU      0.27s WALL (    1322 calls)


      General routines
     calbec       :      0.48s CPU      0.51s WALL (   22624 calls)
     fft          :      0.03s CPU      0.05s WALL (    1926 calls)
     ffts         :      0.00s CPU      0.01s WALL (     382 calls)
     fftw         :      1.93s CPU      1.98s WALL (  104276 calls)
     davcio       :      0.07s CPU      0.06s WALL (    8045 calls)
     write_rec    :      0.20s CPU      0.20s WALL (     176 calls)


     PHONON       :     5.31s CPU         5.63s WALL


   This run was terminated on:  16:57:46  20Jul2016            

=------------------------------------------------------------------------------=
   JOB DONE.
=------------------------------------------------------------------------------=
