
     Program PHONON v.6.1 (svn rev. 13571M) starts on 21Jun2017 at 16:16:24 

     This program is part of the open-source Quantum ESPRESSO suite
     for quantum simulation of materials; please cite
         "P. Giannozzi et al., J. Phys.:Condens. Matter 21 395502 (2009);
          URL http://www.quantum-espresso.org", 
     in publications or presentations arising from this work. More details at
     http://www.quantum-espresso.org/quote

     Parallel version (MPI), running on     4 processors
     K-points division:     npool     =       4

     Reading data from directory:
     /home/paulatto/espresso/D3Q/Examples/Graphene/TMP/gene.save/

   Info: using nr1, nr2, nr3 values from input

   Info: using nr1, nr2, nr3 values from input

     IMPORTANT: XC functional enforced from input :
     Exchange-correlation      = PBE ( 1  4  3  4 0 0)
     Any further DFT definition will be discarded
     Please, verify this is what you really want

               file C.pbe-mt_fhi.UPF: wavefunction(s)  4f renormalized
 
     G-vector sticks info
     --------------------
     sticks:   dense  smooth     PW     G-vecs:    dense   smooth      PW
     Sum         421     421    121                20125    20125    3365
 


     Dynamical matrices for ( 2, 2, 1)  uniform grid of q-points
     (   2 q-points):
       N         xq(1)         xq(2)         xq(3) 
       1   0.000000000   0.000000000   0.000000000
       2   0.000000000  -0.577350269   0.000000000

     Calculation of q =    0.0000000   0.0000000   0.0000000

Possibly too few bands at point    1   0.00000   0.00000   0.00000

Possibly too few bands at point    2   0.00000   0.14434   0.00000

Possibly too few bands at point    3   0.00000   0.28868   0.00000

     graphene for phonons                                                       

     bravais-lattice index     =            4
     lattice parameter (alat)  =       4.6074  a.u.
     unit-cell volume          =     254.1126 (a.u.)^3
     number of atoms/cell      =            2
     number of atomic types    =            1
     kinetic-energy cut-off    =      70.0000  Ry
     charge density cut-off    =     280.0000  Ry
     convergence threshold     =      1.0E-20
     beta                      =       0.7000
     number of iterations used =            4
     Exchange-correlation      = PBE ( 1  4  3  4 0 0)


     celldm(1)=    4.60742  celldm(2)=    0.00000  celldm(3)=    3.00000
     celldm(4)=    0.00000  celldm(5)=    0.00000  celldm(6)=    0.00000

     crystal axes: (cart. coord. in units of alat)
               a(1) = (  1.0000  0.0000  0.0000 )  
               a(2) = ( -0.5000  0.8660  0.0000 )  
               a(3) = (  0.0000  0.0000  3.0000 )  

     reciprocal axes: (cart. coord. in units 2 pi/alat)
               b(1) = (  1.0000  0.5774  0.0000 )  
               b(2) = (  0.0000  1.1547  0.0000 )  
               b(3) = (  0.0000  0.0000  0.3333 )  


     Atoms inside the unit cell: 

     Cartesian axes

     site n.  atom      mass           positions (alat units)
        1     C   12.0107   tau(    1) = (    0.50000    0.28868    0.00000  )
        2     C   12.0107   tau(    2) = (    0.50000   -0.28868    0.00000  )

     Computing dynamical matrix for 
                    q = (   0.0000000   0.0000000   0.0000000 )
 
     25 Sym.Ops. (with q -> -q+G )


     G cutoff =  150.5617  (  20125 G-vectors)     FFT grid: ( 25, 25, 75)

     number of k points=    10  Marzari-Vanderbilt smearing, width (Ry)=  0.2500

     PseudoPot. # 1 for  C read from file:
     ./C.pbe-mt_fhi.UPF
     MD5 check sum: 058ca341f9d6d5327d9962fd88a91b65
     Pseudo is Norm-conserving, Zval =  4.0
     Generated using FHI98PP, converted with fhi2upf.x v.5.0.2
     Using radial grid of  461 points,  3 beta functions with: 
                l(1) =   0
                l(2) =   1
                l(3) =   3

     Mode symmetry, D_6h(6/mmm) point group:


     Atomic displacements:
     There are   4 irreducible representations

     Representation     1      1 modes -B_1g  To be done

     Representation     2      2 modes -E_2g  To be done

     Representation     3      1 modes -A_2u  To be done

     Representation     4      2 modes -E_1u  To be done



     Alpha used in Ewald sum =   2.8000
     PHONON       :     0.32s CPU         0.36s WALL



     Representation #  1 mode #   1

     Self-consistent Calculation
 
     Pert. #  1: Fermi energy shift (Ry) =     0.0000E+00     0.0000E+00

      iter #   1 total cpu time :     0.6 secs   av.it.:   3.4
      thresh= 1.000E-02 alpha_mix =  0.700 |ddv_scf|^2 =  7.494E-08
 
     Pert. #  1: Fermi energy shift (Ry) =     0.0000E+00     0.0000E+00

      iter #   2 total cpu time :     0.8 secs   av.it.:   6.5
      thresh= 2.737E-05 alpha_mix =  0.700 |ddv_scf|^2 =  3.778E-09
 
     Pert. #  1: Fermi energy shift (Ry) =     0.0000E+00     0.0000E+00

      iter #   3 total cpu time :     1.1 secs   av.it.:   5.7
      thresh= 6.146E-06 alpha_mix =  0.700 |ddv_scf|^2 =  1.988E-10
 
     Pert. #  1: Fermi energy shift (Ry) =     0.0000E+00     0.0000E+00

      iter #   4 total cpu time :     1.3 secs   av.it.:   5.9
      thresh= 1.410E-06 alpha_mix =  0.700 |ddv_scf|^2 =  1.008E-13
 
     Pert. #  1: Fermi energy shift (Ry) =     0.0000E+00     0.0000E+00

      iter #   5 total cpu time :     1.7 secs   av.it.:   6.9
      thresh= 3.175E-08 alpha_mix =  0.700 |ddv_scf|^2 =  1.302E-15
 
     Pert. #  1: Fermi energy shift (Ry) =     0.0000E+00     0.0000E+00

      iter #   6 total cpu time :     1.9 secs   av.it.:   5.9
      thresh= 3.608E-09 alpha_mix =  0.700 |ddv_scf|^2 =  8.943E-18
 
     Pert. #  1: Fermi energy shift (Ry) =     0.0000E+00     0.0000E+00

      iter #   7 total cpu time :     2.2 secs   av.it.:   6.2
      thresh= 2.991E-10 alpha_mix =  0.700 |ddv_scf|^2 =  3.111E-19
 
     Pert. #  1: Fermi energy shift (Ry) =     0.0000E+00     0.0000E+00

      iter #   8 total cpu time :     2.4 secs   av.it.:   5.6
      thresh= 5.578E-11 alpha_mix =  0.700 |ddv_scf|^2 =  2.149E-21

     End of self-consistent calculation

     Convergence has been achieved 


     Representation #  2 modes #   2  3

     Self-consistent Calculation
 
     Pert. #  1: Fermi energy shift (Ry) =     6.9389E-18    -7.8366E-38
     Pert. #  2: Fermi energy shift (Ry) =    -1.0408E-17     7.8366E-38

      iter #   1 total cpu time :     2.9 secs   av.it.:   3.8
      thresh= 1.000E-02 alpha_mix =  0.700 |ddv_scf|^2 =  1.946E-07
 
     Pert. #  1: Fermi energy shift (Ry) =    -9.5410E-18    -2.1046E-41
     Pert. #  2: Fermi energy shift (Ry) =    -9.1073E-18     1.9132E-42

      iter #   2 total cpu time :     3.4 secs   av.it.:   6.7
      thresh= 4.411E-05 alpha_mix =  0.700 |ddv_scf|^2 =  1.112E-09
 
     Pert. #  1: Fermi energy shift (Ry) =     2.1395E-17     4.9744E-41
     Pert. #  2: Fermi energy shift (Ry) =    -6.3607E-18     4.9744E-41

      iter #   3 total cpu time :     3.8 secs   av.it.:   6.6
      thresh= 3.335E-06 alpha_mix =  0.700 |ddv_scf|^2 =  9.709E-11
 
     Pert. #  1: Fermi energy shift (Ry) =     7.2280E-18    -4.7831E-42
     Pert. #  2: Fermi energy shift (Ry) =    -1.0987E-17     3.8265E-42

      iter #   4 total cpu time :     4.3 secs   av.it.:   6.2
      thresh= 9.853E-07 alpha_mix =  0.700 |ddv_scf|^2 =  1.099E-14
 
     Pert. #  1: Fermi energy shift (Ry) =    -6.7943E-18    -5.2614E-42
     Pert. #  2: Fermi energy shift (Ry) =    -4.7705E-18     2.3915E-42

      iter #   5 total cpu time :     4.9 secs   av.it.:   8.3
      thresh= 1.048E-08 alpha_mix =  0.700 |ddv_scf|^2 =  3.653E-16
 
     Pert. #  1: Fermi energy shift (Ry) =     2.8912E-18    -5.2614E-42
     Pert. #  2: Fermi energy shift (Ry) =    -9.3964E-18     9.5662E-43

      iter #   6 total cpu time :     5.4 secs   av.it.:   6.9
      thresh= 1.911E-09 alpha_mix =  0.700 |ddv_scf|^2 =  1.333E-18
 
     Pert. #  1: Fermi energy shift (Ry) =     3.0358E-18    -5.2614E-42
     Pert. #  2: Fermi energy shift (Ry) =    -6.0715E-18     9.5662E-43

      iter #   7 total cpu time :     6.0 secs   av.it.:   7.8
      thresh= 1.155E-10 alpha_mix =  0.700 |ddv_scf|^2 =  4.024E-21

     End of self-consistent calculation

     Convergence has been achieved 


     Representation #  3 mode #   4

     Self-consistent Calculation
 
     Pert. #  1: Fermi energy shift (Ry) =    -5.5145E-25     0.0000E+00

      iter #   1 total cpu time :     6.3 secs   av.it.:   4.2
      thresh= 1.000E-02 alpha_mix =  0.700 |ddv_scf|^2 =  9.230E-05
 
     Pert. #  1: Fermi energy shift (Ry) =     1.7647E-23     0.0000E+00

      iter #   2 total cpu time :     6.6 secs   av.it.:   5.6
      thresh= 9.607E-04 alpha_mix =  0.700 |ddv_scf|^2 =  6.366E-05
 
     Pert. #  1: Fermi energy shift (Ry) =     3.5293E-23     0.0000E+00

      iter #   3 total cpu time :     6.8 secs   av.it.:   5.4
      thresh= 7.979E-04 alpha_mix =  0.700 |ddv_scf|^2 =  4.351E-08
 
     Pert. #  1: Fermi energy shift (Ry) =     0.0000E+00     0.0000E+00

      iter #   4 total cpu time :     7.0 secs   av.it.:   5.4
      thresh= 2.086E-05 alpha_mix =  0.700 |ddv_scf|^2 =  2.586E-10
 
     Pert. #  1: Fermi energy shift (Ry) =    -2.7573E-25     0.0000E+00

      iter #   5 total cpu time :     7.3 secs   av.it.:   5.5
      thresh= 1.608E-06 alpha_mix =  0.700 |ddv_scf|^2 =  1.445E-11
 
     Pert. #  1: Fermi energy shift (Ry) =     1.3786E-25     0.0000E+00

      iter #   6 total cpu time :     7.5 secs   av.it.:   5.7
      thresh= 3.801E-07 alpha_mix =  0.700 |ddv_scf|^2 =  6.280E-14
 
     Pert. #  1: Fermi energy shift (Ry) =     0.0000E+00     0.0000E+00

      iter #   7 total cpu time :     7.8 secs   av.it.:   6.5
      thresh= 2.506E-08 alpha_mix =  0.700 |ddv_scf|^2 =  1.195E-15
 
     Pert. #  1: Fermi energy shift (Ry) =     3.4466E-26     0.0000E+00

      iter #   8 total cpu time :     8.1 secs   av.it.:   5.1
      thresh= 3.457E-09 alpha_mix =  0.700 |ddv_scf|^2 =  6.503E-18
 
     Pert. #  1: Fermi energy shift (Ry) =     3.4466E-26     0.0000E+00

      iter #   9 total cpu time :     8.3 secs   av.it.:   6.1
      thresh= 2.550E-10 alpha_mix =  0.700 |ddv_scf|^2 =  1.099E-18
 
     Pert. #  1: Fermi energy shift (Ry) =     0.0000E+00     0.0000E+00

      iter #  10 total cpu time :     8.6 secs   av.it.:   5.6
      thresh= 1.048E-10 alpha_mix =  0.700 |ddv_scf|^2 =  3.789E-21

     End of self-consistent calculation

     Convergence has been achieved 


     Representation #  4 modes #   5  6

     Self-consistent Calculation
 
     Pert. #  1: Fermi energy shift (Ry) =     0.0000E+00     0.0000E+00
     Pert. #  2: Fermi energy shift (Ry) =    -4.2352E-22     2.0062E-36

      iter #   1 total cpu time :     9.1 secs   av.it.:   3.6
      thresh= 1.000E-02 alpha_mix =  0.700 |ddv_scf|^2 =  4.360E-08
 
     Pert. #  1: Fermi energy shift (Ry) =     0.0000E+00     0.0000E+00
     Pert. #  2: Fermi energy shift (Ry) =     2.2058E-24     0.0000E+00

      iter #   2 total cpu time :     9.5 secs   av.it.:   6.5
      thresh= 2.088E-05 alpha_mix =  0.700 |ddv_scf|^2 =  1.286E-09
 
     Pert. #  1: Fermi energy shift (Ry) =     0.0000E+00     0.0000E+00
     Pert. #  2: Fermi energy shift (Ry) =     4.1359E-25     2.4489E-40

      iter #   3 total cpu time :    10.0 secs   av.it.:   6.3
      thresh= 3.586E-06 alpha_mix =  0.700 |ddv_scf|^2 =  7.611E-11
 
     Pert. #  1: Fermi energy shift (Ry) =    -3.4466E-26     0.0000E+00
     Pert. #  2: Fermi energy shift (Ry) =    -6.8932E-26     1.2245E-40

      iter #   4 total cpu time :    10.5 secs   av.it.:   5.7
      thresh= 8.724E-07 alpha_mix =  0.700 |ddv_scf|^2 =  8.698E-15
 
     Pert. #  1: Fermi energy shift (Ry) =    -1.7233E-26     0.0000E+00
     Pert. #  2: Fermi energy shift (Ry) =    -1.7233E-26     0.0000E+00

      iter #   5 total cpu time :    11.0 secs   av.it.:   7.8
      thresh= 9.326E-09 alpha_mix =  0.700 |ddv_scf|^2 =  1.815E-16
 
     Pert. #  1: Fermi energy shift (Ry) =    -1.7233E-26     0.0000E+00
     Pert. #  2: Fermi energy shift (Ry) =     5.1699E-26    -9.5662E-43

      iter #   6 total cpu time :    11.6 secs   av.it.:   6.9
      thresh= 1.347E-09 alpha_mix =  0.700 |ddv_scf|^2 =  2.678E-18
 
     Pert. #  1: Fermi energy shift (Ry) =     1.7233E-26     0.0000E+00
     Pert. #  2: Fermi energy shift (Ry) =     0.0000E+00    -9.5662E-43

      iter #   7 total cpu time :    12.1 secs   av.it.:   7.3
      thresh= 1.636E-10 alpha_mix =  0.700 |ddv_scf|^2 =  3.350E-21

     End of self-consistent calculation

     Convergence has been achieved 
 
     Number of q in the star =    1
     List of q in the star:
          1   0.000000000   0.000000000   0.000000000

     Diagonalizing the dynamical matrix

     q = (    0.000000000   0.000000000   0.000000000 ) 

 **************************************************************************
     freq (    1) =      -0.231762 [THz] =      -7.730750 [cm-1]
     freq (    2) =       1.879304 [THz] =      62.686832 [cm-1]
     freq (    3) =       1.879304 [THz] =      62.686832 [cm-1]
     freq (    4) =      27.550617 [THz] =     918.989673 [cm-1]
     freq (    5) =      45.280577 [THz] =    1510.397456 [cm-1]
     freq (    6) =      45.280577 [THz] =    1510.397456 [cm-1]
 **************************************************************************

     Mode symmetry, D_6h(6/mmm) point group:

     freq (  1 -  1) =         -7.7  [cm-1]   --> A_2u            I  
     freq (  2 -  3) =         62.7  [cm-1]   --> E_1u            I  
     freq (  4 -  4) =        919.0  [cm-1]   --> B_1g               
     freq (  5 -  6) =       1510.4  [cm-1]   --> E_2g            R  
 
     Number of q in the star =    1
     List of q in the star:
          1   0.000000000   0.000000000   0.000000000
       Writing drho for q = (  0.000000  0.000000  0.000000) on file "drho_rot.0_0_0"

     Calculation of q =    0.0000000  -0.5773503   0.0000000

   Info: using nr1, nr2, nr3 values from input

   Info: using nr1, nr2, nr3 values from input
 
     G-vector sticks info
     --------------------
     sticks:   dense  smooth     PW     G-vecs:    dense   smooth      PW
     Sum         421     421    151                20125    20125    4225
 

     Title: 
     graphene for phonons                                                       


     bravais-lattice index     =            4
     lattice parameter (alat)  =       4.6074  a.u.
     unit-cell volume          =     254.1126 (a.u.)^3
     number of atoms/cell      =            2
     number of atomic types    =            1
     material density (g/cm^3) =       1.0593
     number of electrons       =         8.00
     number of Kohn-Sham states=            8
     kinetic-energy cutoff     =      70.0000  Ry
     charge density cutoff     =     280.0000  Ry
     Exchange-correlation      = PBE ( 1  4  3  4 0 0)

     celldm(1)=   4.607423  celldm(2)=   0.000000  celldm(3)=   3.000000
     celldm(4)=   0.000000  celldm(5)=   0.000000  celldm(6)=   0.000000

     new unit-cell volume =    254.11265 a.u.^3 (    37.65561 Ang^3 )
     density =      1.05930 g/cm^3

CELL_PARAMETERS (alat=  4.60742348)
   1.000000000   0.000000000   0.000000000
  -0.500000000   0.866025404   0.000000000
   0.000000000   0.000000000   3.000000000

ATOMIC_POSITIONS
C        0.500000000   0.288680000   0.000000000
C        0.500000000  -0.288680000   0.000000000


     crystal axes: (cart. coord. in units of alat)
               a(1) = (   1.000000   0.000000   0.000000 )  
               a(2) = (  -0.500000   0.866025   0.000000 )  
               a(3) = (   0.000000   0.000000   3.000000 )  

     reciprocal axes: (cart. coord. in units 2 pi/alat)
               b(1) = (  1.000000  0.577350  0.000000 )  
               b(2) = (  0.000000  1.154701  0.000000 )  
               b(3) = (  0.000000  0.000000  0.333333 )  


     PseudoPot. # 1 for  C read from file:
     ./C.pbe-mt_fhi.UPF
     MD5 check sum: 058ca341f9d6d5327d9962fd88a91b65
     Pseudo is Norm-conserving, Zval =  4.0
     Generated using FHI98PP, converted with fhi2upf.x v.5.0.2
     Using radial grid of  461 points,  3 beta functions with: 
                l(1) =   0
                l(2) =   1
                l(3) =   3

     atomic species   valence    mass     pseudopotential
        C              4.00    12.01070      C( 1.00)

     24 Sym. Ops., with inversion, found



   Cartesian axes

     site n.     atom                  positions (alat units)
         1           C   tau(   1) = (   0.5000000   0.2886800   0.0000000  )
         2           C   tau(   2) = (   0.5000000  -0.2886800   0.0000000  )

     number of k points=    42  Marzari-Vanderbilt smearing, width (Ry)=  0.2500
                       cart. coord. in units 2pi/alat
        k(    1) = (   0.0000000   0.0000000   0.0000000), wk =   0.0312500
        k(    2) = (   0.0000000  -0.5773503   0.0000000), wk =   0.0000000
        k(    3) = (   0.0000000   0.1443376   0.0000000), wk =   0.0625000
        k(    4) = (   0.0000000  -0.4330127   0.0000000), wk =   0.0000000
        k(    5) = (   0.0000000   0.2886751   0.0000000), wk =   0.0625000
        k(    6) = (   0.0000000  -0.2886751   0.0000000), wk =   0.0000000
        k(    7) = (   0.0000000   0.4330127   0.0000000), wk =   0.0625000
        k(    8) = (   0.0000000  -0.1443376   0.0000000), wk =   0.0000000
        k(    9) = (   0.0000000  -0.5773503   0.0000000), wk =   0.0312500
        k(   10) = (   0.0000000  -1.1547005   0.0000000), wk =   0.0000000
        k(   11) = (   0.1250000   0.2165064   0.0000000), wk =   0.1250000
        k(   12) = (   0.1250000  -0.3608439   0.0000000), wk =   0.0000000
        k(   13) = (   0.1250000   0.3608439   0.0000000), wk =   0.1250000
        k(   14) = (   0.1250000  -0.2165064   0.0000000), wk =   0.0000000
        k(   15) = (   0.1250000   0.5051815   0.0000000), wk =   0.1250000
        k(   16) = (   0.1250000  -0.0721688   0.0000000), wk =   0.0000000
        k(   17) = (   0.2500000   0.4330127   0.0000000), wk =   0.1250000
        k(   18) = (   0.2500000  -0.1443376   0.0000000), wk =   0.0000000
        k(   19) = (   0.2500000   0.5773503   0.0000000), wk =   0.0625000
        k(   20) = (   0.2500000   0.0000000   0.0000000), wk =   0.0000000
        k(   21) = (  -0.1250000  -0.0721688   0.0000000), wk =   0.1250000
        k(   22) = (  -0.1250000  -0.6495191   0.0000000), wk =   0.0000000
        k(   23) = (  -0.2500000  -0.1443376   0.0000000), wk =   0.1250000
        k(   24) = (  -0.2500000  -0.7216878   0.0000000), wk =   0.0000000
        k(   25) = (  -0.3750000  -0.2165064   0.0000000), wk =   0.1250000
        k(   26) = (  -0.3750000  -0.7938566   0.0000000), wk =   0.0000000
        k(   27) = (   0.5000000   0.2886751   0.0000000), wk =   0.0625000
        k(   28) = (   0.5000000  -0.2886751   0.0000000), wk =   0.0000000
        k(   29) = (   0.2500000   0.0000000   0.0000000), wk =   0.0625000
        k(   30) = (   0.2500000  -0.5773503   0.0000000), wk =   0.0000000
        k(   31) = (  -0.2500000  -0.2886751   0.0000000), wk =   0.1250000
        k(   32) = (  -0.2500000  -0.8660254   0.0000000), wk =   0.0000000
        k(   33) = (   0.3750000  -0.0721688   0.0000000), wk =   0.1250000
        k(   34) = (   0.3750000  -0.6495191   0.0000000), wk =   0.0000000
        k(   35) = (  -0.3750000  -0.3608439   0.0000000), wk =   0.1250000
        k(   36) = (  -0.3750000  -0.9381942   0.0000000), wk =   0.0000000
        k(   37) = (   0.5000000  -0.1443376   0.0000000), wk =   0.1250000
        k(   38) = (   0.5000000  -0.7216878   0.0000000), wk =   0.0000000
        k(   39) = (   0.5000000   0.0000000   0.0000000), wk =   0.0625000
        k(   40) = (   0.5000000  -0.5773503   0.0000000), wk =   0.0000000
        k(   41) = (  -0.3750000  -0.5051815   0.0000000), wk =   0.1250000
        k(   42) = (  -0.3750000  -1.0825318   0.0000000), wk =   0.0000000

     Dense  grid:    20125 G-vectors     FFT dimensions: (  25,  25,  75)

     Estimated max dynamical RAM per process >       8.11MB

     Estimated total allocated dynamical RAM >      32.45MB

     The potential is recalculated from file :
     /home/paulatto/espresso/D3Q/Examples/Graphene/TMP/_ph0/gene.save/charge-density.dat

     Starting wfc are   32 atomic wfcs

     Band Structure Calculation
     Davidson diagonalization with overlap

     ethr =  1.25E-10,  avg # of iterations = 15.4

     total cpu time spent up to now is        1.7 secs

     End of band structure calculation

          k = 0.0000 0.0000 0.0000 (  2509 PWs)   bands (ev):

   -18.5358  -6.7059  -1.8335  -1.8324   3.7187   7.2163   9.4847   9.7532

          k = 0.0000-0.5774 0.0000 (  2516 PWs)   bands (ev):

   -13.1269 -12.1928  -5.2982  -1.2908   2.8243   8.9218  11.8088  11.9441

          k = 0.0000 0.1443 0.0000 (  2509 PWs)   bands (ev):

   -18.1581  -6.2547  -3.2182  -2.5556   4.2326   7.7070   9.7042  10.1285

          k = 0.0000-0.4330 0.0000 (  2510 PWs)   bands (ev):

   -15.2060  -9.5718  -4.9276  -2.8953   5.0129   8.3197   9.1205  11.5823

          k = 0.0000 0.2887 0.0000 (  2503 PWs)   bands (ev):

   -17.0352  -6.2490  -4.9315  -3.8968   5.7730   8.5071   9.2750   9.5247

          k = 0.0000-0.2887 0.0000 (  2503 PWs)   bands (ev):

   -17.0352  -6.2490  -4.9315  -3.8968   5.7730   8.5071   9.2750   9.5247

          k = 0.0000 0.4330 0.0000 (  2510 PWs)   bands (ev):

   -15.2060  -9.5718  -4.9276  -2.8953   5.0129   8.3197   9.1205  11.5823

          k = 0.0000-0.1443 0.0000 (  2509 PWs)   bands (ev):

   -18.1581  -6.2547  -3.2182  -2.5556   4.2326   7.7070   9.7042  10.1285

          k = 0.0000-0.5774 0.0000 (  2516 PWs)   bands (ev):

   -13.1269 -12.1928  -5.2982  -1.2908   2.8243   8.9218  11.8088  11.9441

          k = 0.0000-1.1547 0.0000 (  2509 PWs)   bands (ev):

   -18.5358  -6.7059  -1.8335  -1.8324   3.7187   7.2163   9.4847   9.7532

          k = 0.1250 0.2165 0.0000 (  2508 PWs)   bands (ev):

   -17.4078  -5.3659  -5.0250  -3.9936   5.2608   8.6742   9.6023  10.5150

          k = 0.1250-0.3608 0.0000 (  2508 PWs)   bands (ev):

   -15.9313  -7.8455  -5.5375  -3.6602   6.4810   7.3110  10.5478  10.8031

          k = 0.1250 0.3608 0.0000 (  2508 PWs)   bands (ev):

   -15.9313  -7.8455  -5.5375  -3.6602   6.4810   7.3110  10.5478  10.8031

          k = 0.1250-0.2165 0.0000 (  2508 PWs)   bands (ev):

   -17.4078  -5.3659  -5.0250  -3.9936   5.2608   8.6742   9.6023  10.5150

          k = 0.1250 0.5052 0.0000 (  2513 PWs)   bands (ev):

   -13.8109 -10.9022  -6.3153  -1.5056   3.4106  10.3202  10.5497  12.9464

          k = 0.1250-0.0722 0.0000 (  2509 PWs)   bands (ev):

   -18.1581  -6.2547  -3.2188  -2.5549   4.2326   7.7070   9.7047  10.1286

          k = 0.2500 0.4330 0.0000 (  2542 PWs)   bands (ev):

   -14.1506  -9.3515  -7.8912  -1.6878   4.0295   9.8498  12.0773  13.6670

          k = 0.2500-0.1443 0.0000 (  2503 PWs)   bands (ev):

   -17.0352  -6.2494  -4.9315  -3.8963   5.7730   8.5070   9.2749   9.5251

          k = 0.2500 0.5774 0.0000 (  2528 PWs)   bands (ev):

   -12.1710 -11.3459  -8.6782   0.0825   2.1031  12.1791  13.1307  13.2965

          k = 0.2500 0.0000 0.0000 (  2508 PWs)   bands (ev):

   -17.4078  -5.3659  -5.0257  -3.9930   5.2608   8.6742   9.6021  10.5157

          k =-0.1250-0.0722 0.0000 (  2509 PWs)   bands (ev):

   -18.1581  -6.2547  -3.2188  -2.5549   4.2326   7.7070   9.7047  10.1286

          k =-0.1250-0.6495 0.0000 (  2513 PWs)   bands (ev):

   -13.8109 -10.9022  -6.3153  -1.5056   3.4106  10.3202  10.5497  12.9464

          k =-0.2500-0.1443 0.0000 (  2503 PWs)   bands (ev):

   -17.0352  -6.2494  -4.9315  -3.8963   5.7730   8.5070   9.2749   9.5251

          k =-0.2500-0.7217 0.0000 (  2542 PWs)   bands (ev):

   -14.1506  -9.3515  -7.8912  -1.6878   4.0295   9.8498  12.0773  13.6670

          k =-0.3750-0.2165 0.0000 (  2510 PWs)   bands (ev):

   -15.2060  -9.5721  -4.9272  -2.8952   5.0126   8.3197   9.1208  11.5823

          k =-0.3750-0.7939 0.0000 (  2513 PWs)   bands (ev):

   -13.8109 -10.9026  -6.3150  -1.5053   3.4102  10.3203  10.5499  12.9464

          k = 0.5000 0.2887 0.0000 (  2516 PWs)   bands (ev):

   -13.1265 -12.1935  -5.2978  -1.2905   2.8237   8.9221  11.8089  11.9440

          k = 0.5000-0.2887 0.0000 (  2516 PWs)   bands (ev):

   -13.1265 -12.1935  -5.2978  -1.2905   2.8237   8.9221  11.8089  11.9440

          k = 0.2500 0.0000 0.0000 (  2508 PWs)   bands (ev):

   -17.4078  -5.3659  -5.0257  -3.9930   5.2608   8.6742   9.6021  10.5157

          k = 0.2500-0.5774 0.0000 (  2528 PWs)   bands (ev):

   -12.1710 -11.3459  -8.6782   0.0825   2.1031  12.1791  13.1307  13.2965

          k =-0.2500-0.2887 0.0000 (  2508 PWs)   bands (ev):

   -15.9313  -7.8457  -5.5372  -3.6602   6.4808   7.3110  10.5478  10.8034

          k =-0.2500-0.8660 0.0000 (  2508 PWs)   bands (ev):

   -15.9313  -7.8457  -5.5372  -3.6602   6.4808   7.3110  10.5478  10.8034

          k = 0.3750-0.0722 0.0000 (  2508 PWs)   bands (ev):

   -15.9313  -7.8459  -5.5370  -3.6602   6.4807   7.3110  10.5478  10.8036

          k = 0.3750-0.6495 0.0000 (  2528 PWs)   bands (ev):

   -12.1706 -11.3467  -8.6779   0.0829   2.1026  12.1793  13.1308  13.2964

          k =-0.3750-0.3608 0.0000 (  2513 PWs)   bands (ev):

   -13.8109 -10.9026  -6.3150  -1.5053   3.4102  10.3203  10.5499  12.9464

          k =-0.3750-0.9382 0.0000 (  2510 PWs)   bands (ev):

   -15.2060  -9.5721  -4.9272  -2.8952   5.0126   8.3197   9.1208  11.5823

          k = 0.5000-0.1443 0.0000 (  2513 PWs)   bands (ev):

   -13.8109 -10.9026  -6.3149  -1.5053   3.4101  10.3203  10.5499  12.9465

          k = 0.5000-0.7217 0.0000 (  2513 PWs)   bands (ev):

   -13.8109 -10.9026  -6.3149  -1.5053   3.4101  10.3203  10.5499  12.9465

          k = 0.5000 0.0000 0.0000 (  2542 PWs)   bands (ev):

   -14.1506  -9.3520  -7.8907  -1.6877   4.0292   9.8498  12.0775  13.6678

          k = 0.5000-0.5774 0.0000 (  2542 PWs)   bands (ev):

   -14.1506  -9.3520  -7.8907  -1.6877   4.0292   9.8498  12.0775  13.6678

          k =-0.3750-0.5052 0.0000 (  2528 PWs)   bands (ev):

   -12.1706 -11.3467  -8.6779   0.0829   2.1026  12.1793  13.1308  13.2964

          k =-0.3750-1.0825 0.0000 (  2508 PWs)   bands (ev):

   -15.9313  -7.8459  -5.5370  -3.6602   6.4807   7.3110  10.5478  10.8036

     the Fermi energy is     0.3078 ev

     Writing output data file gene.save

Possibly too few bands at point    1   0.00000   0.00000   0.00000

Possibly too few bands at point    3   0.00000   0.14434   0.00000

Possibly too few bands at point    5   0.00000   0.28868   0.00000

Possibly too few bands at point    6   0.00000  -0.28868   0.00000

Possibly too few bands at point    8   0.00000  -0.14434   0.00000

Possibly too few bands at point   10   0.00000  -1.15470   0.00000

     graphene for phonons                                                       

     bravais-lattice index     =            4
     lattice parameter (alat)  =       4.6074  a.u.
     unit-cell volume          =     254.1126 (a.u.)^3
     number of atoms/cell      =            2
     number of atomic types    =            1
     kinetic-energy cut-off    =      70.0000  Ry
     charge density cut-off    =     280.0000  Ry
     convergence threshold     =      1.0E-20
     beta                      =       0.7000
     number of iterations used =            4
     Exchange-correlation      = PBE ( 1  4  3  4 0 0)


     celldm(1)=    4.60742  celldm(2)=    0.00000  celldm(3)=    3.00000
     celldm(4)=    0.00000  celldm(5)=    0.00000  celldm(6)=    0.00000

     crystal axes: (cart. coord. in units of alat)
               a(1) = (  1.0000  0.0000  0.0000 )  
               a(2) = ( -0.5000  0.8660  0.0000 )  
               a(3) = (  0.0000  0.0000  3.0000 )  

     reciprocal axes: (cart. coord. in units 2 pi/alat)
               b(1) = (  1.0000  0.5774  0.0000 )  
               b(2) = (  0.0000  1.1547  0.0000 )  
               b(3) = (  0.0000  0.0000  0.3333 )  


     Atoms inside the unit cell: 

     Cartesian axes

     site n.  atom      mass           positions (alat units)
        1     C   12.0107   tau(    1) = (    0.50000    0.28868    0.00000  )
        2     C   12.0107   tau(    2) = (    0.50000   -0.28868    0.00000  )

     Computing dynamical matrix for 
                    q = (   0.0000000  -0.5773503   0.0000000 )
 
      9 Sym.Ops. (with q -> -q+G )


     G cutoff =  150.5617  (  20125 G-vectors)     FFT grid: ( 25, 25, 75)

     number of k points=    42  Marzari-Vanderbilt smearing, width (Ry)=  0.2500

     PseudoPot. # 1 for  C read from file:
     ./C.pbe-mt_fhi.UPF
     MD5 check sum: 058ca341f9d6d5327d9962fd88a91b65
     Pseudo is Norm-conserving, Zval =  4.0
     Generated using FHI98PP, converted with fhi2upf.x v.5.0.2
     Using radial grid of  461 points,  3 beta functions with: 
                l(1) =   0
                l(2) =   1
                l(3) =   3

     Mode symmetry, D_2h (mmm)  point group:


     Atomic displacements:
     There are   6 irreducible representations

     Representation     1      1 modes -A_g  To be done

     Representation     2      1 modes -B_1g  To be done

     Representation     3      1 modes -B_2g  To be done

     Representation     4      1 modes -B_1u  To be done

     Representation     5      1 modes -B_2u  To be done

     Representation     6      1 modes -B_3u  To be done



     Alpha used in Ewald sum =   2.8000
     PHONON       :    13.36s CPU        14.20s WALL



     Representation #  1 mode #   1

     Self-consistent Calculation

      iter #   1 total cpu time :    14.5 secs   av.it.:   4.3
      thresh= 1.000E-02 alpha_mix =  0.700 |ddv_scf|^2 =  3.198E-05

      iter #   2 total cpu time :    14.9 secs   av.it.:   6.5
      thresh= 5.655E-04 alpha_mix =  0.700 |ddv_scf|^2 =  3.529E-05

      iter #   3 total cpu time :    15.3 secs   av.it.:   6.1
      thresh= 5.941E-04 alpha_mix =  0.700 |ddv_scf|^2 =  1.285E-07

      iter #   4 total cpu time :    15.8 secs   av.it.:   6.4
      thresh= 3.584E-05 alpha_mix =  0.700 |ddv_scf|^2 =  3.338E-10

      iter #   5 total cpu time :    16.2 secs   av.it.:   6.8
      thresh= 1.827E-06 alpha_mix =  0.700 |ddv_scf|^2 =  2.357E-12

      iter #   6 total cpu time :    16.6 secs   av.it.:   6.9
      thresh= 1.535E-07 alpha_mix =  0.700 |ddv_scf|^2 =  8.441E-14

      iter #   7 total cpu time :    17.1 secs   av.it.:   7.1
      thresh= 2.905E-08 alpha_mix =  0.700 |ddv_scf|^2 =  1.280E-15

      iter #   8 total cpu time :    17.5 secs   av.it.:   6.9
      thresh= 3.578E-09 alpha_mix =  0.700 |ddv_scf|^2 =  1.812E-17

      iter #   9 total cpu time :    17.9 secs   av.it.:   6.8
      thresh= 4.257E-10 alpha_mix =  0.700 |ddv_scf|^2 =  8.743E-20

      iter #  10 total cpu time :    18.4 secs   av.it.:   7.6
      thresh= 2.957E-11 alpha_mix =  0.700 |ddv_scf|^2 =  2.381E-20

      iter #  11 total cpu time :    18.8 secs   av.it.:   6.6
      thresh= 1.543E-11 alpha_mix =  0.700 |ddv_scf|^2 =  5.149E-22

     End of self-consistent calculation

     Convergence has been achieved 


     Representation #  2 mode #   2

     Self-consistent Calculation

      iter #   1 total cpu time :    19.1 secs   av.it.:   3.4
      thresh= 1.000E-02 alpha_mix =  0.700 |ddv_scf|^2 =  4.911E-08

      iter #   2 total cpu time :    19.5 secs   av.it.:   6.0
      thresh= 2.216E-05 alpha_mix =  0.700 |ddv_scf|^2 =  4.612E-09

      iter #   3 total cpu time :    19.9 secs   av.it.:   5.8
      thresh= 6.791E-06 alpha_mix =  0.700 |ddv_scf|^2 =  3.071E-11

      iter #   4 total cpu time :    20.3 secs   av.it.:   6.7
      thresh= 5.541E-07 alpha_mix =  0.700 |ddv_scf|^2 =  1.385E-14

      iter #   5 total cpu time :    20.7 secs   av.it.:   7.3
      thresh= 1.177E-08 alpha_mix =  0.700 |ddv_scf|^2 =  5.475E-16

      iter #   6 total cpu time :    21.1 secs   av.it.:   6.4
      thresh= 2.340E-09 alpha_mix =  0.700 |ddv_scf|^2 =  2.795E-18

      iter #   7 total cpu time :    21.5 secs   av.it.:   7.1
      thresh= 1.672E-10 alpha_mix =  0.700 |ddv_scf|^2 =  3.236E-21

     End of self-consistent calculation

     Convergence has been achieved 


     Representation #  3 mode #   3

     Self-consistent Calculation

      iter #   1 total cpu time :    21.9 secs   av.it.:   4.0
      thresh= 1.000E-02 alpha_mix =  0.700 |ddv_scf|^2 =  2.277E-06

      iter #   2 total cpu time :    22.3 secs   av.it.:   6.2
      thresh= 1.509E-04 alpha_mix =  0.700 |ddv_scf|^2 =  5.998E-08

      iter #   3 total cpu time :    22.7 secs   av.it.:   6.4
      thresh= 2.449E-05 alpha_mix =  0.700 |ddv_scf|^2 =  7.262E-10

      iter #   4 total cpu time :    23.1 secs   av.it.:   6.0
      thresh= 2.695E-06 alpha_mix =  0.700 |ddv_scf|^2 =  2.128E-13

      iter #   5 total cpu time :    23.5 secs   av.it.:   7.0
      thresh= 4.613E-08 alpha_mix =  0.700 |ddv_scf|^2 =  9.269E-15

      iter #   6 total cpu time :    23.9 secs   av.it.:   5.8
      thresh= 9.628E-09 alpha_mix =  0.700 |ddv_scf|^2 =  4.378E-17

      iter #   7 total cpu time :    24.3 secs   av.it.:   6.5
      thresh= 6.617E-10 alpha_mix =  0.700 |ddv_scf|^2 =  1.739E-18

      iter #   8 total cpu time :    24.7 secs   av.it.:   5.9
      thresh= 1.319E-10 alpha_mix =  0.700 |ddv_scf|^2 =  1.160E-20

      iter #   9 total cpu time :    25.1 secs   av.it.:   6.3
      thresh= 1.077E-11 alpha_mix =  0.700 |ddv_scf|^2 =  4.257E-22

     End of self-consistent calculation

     Convergence has been achieved 


     Representation #  4 mode #   4

     Self-consistent Calculation

      iter #   1 total cpu time :    25.5 secs   av.it.:   3.8
      thresh= 1.000E-02 alpha_mix =  0.700 |ddv_scf|^2 =  7.466E-07

      iter #   2 total cpu time :    25.9 secs   av.it.:   6.5
      thresh= 8.640E-05 alpha_mix =  0.700 |ddv_scf|^2 =  5.965E-09

      iter #   3 total cpu time :    26.3 secs   av.it.:   6.3
      thresh= 7.724E-06 alpha_mix =  0.700 |ddv_scf|^2 =  5.182E-10

      iter #   4 total cpu time :    26.7 secs   av.it.:   5.9
      thresh= 2.276E-06 alpha_mix =  0.700 |ddv_scf|^2 =  5.088E-13

      iter #   5 total cpu time :    27.2 secs   av.it.:   7.4
      thresh= 7.133E-08 alpha_mix =  0.700 |ddv_scf|^2 =  1.337E-14

      iter #   6 total cpu time :    27.6 secs   av.it.:   5.9
      thresh= 1.156E-08 alpha_mix =  0.700 |ddv_scf|^2 =  1.160E-16

      iter #   7 total cpu time :    28.0 secs   av.it.:   7.3
      thresh= 1.077E-09 alpha_mix =  0.700 |ddv_scf|^2 =  1.638E-18

      iter #   8 total cpu time :    28.4 secs   av.it.:   5.9
      thresh= 1.280E-10 alpha_mix =  0.700 |ddv_scf|^2 =  6.172E-20

      iter #   9 total cpu time :    28.8 secs   av.it.:   6.4
      thresh= 2.484E-11 alpha_mix =  0.700 |ddv_scf|^2 =  8.226E-22

     End of self-consistent calculation

     Convergence has been achieved 


     Representation #  5 mode #   5

     Self-consistent Calculation

      iter #   1 total cpu time :    29.2 secs   av.it.:   3.9
      thresh= 1.000E-02 alpha_mix =  0.700 |ddv_scf|^2 =  1.794E-06

      iter #   2 total cpu time :    29.6 secs   av.it.:   6.2
      thresh= 1.339E-04 alpha_mix =  0.700 |ddv_scf|^2 =  1.341E-08

      iter #   3 total cpu time :    30.0 secs   av.it.:   6.4
      thresh= 1.158E-05 alpha_mix =  0.700 |ddv_scf|^2 =  5.731E-10

      iter #   4 total cpu time :    30.3 secs   av.it.:   6.0
      thresh= 2.394E-06 alpha_mix =  0.700 |ddv_scf|^2 =  3.689E-13

      iter #   5 total cpu time :    30.8 secs   av.it.:   7.7
      thresh= 6.074E-08 alpha_mix =  0.700 |ddv_scf|^2 =  9.282E-16

      iter #   6 total cpu time :    31.2 secs   av.it.:   7.0
      thresh= 3.047E-09 alpha_mix =  0.700 |ddv_scf|^2 =  6.662E-17

      iter #   7 total cpu time :    31.6 secs   av.it.:   6.0
      thresh= 8.162E-10 alpha_mix =  0.700 |ddv_scf|^2 =  7.422E-20

      iter #   8 total cpu time :    32.0 secs   av.it.:   6.7
      thresh= 2.724E-11 alpha_mix =  0.700 |ddv_scf|^2 =  6.213E-21

     End of self-consistent calculation

     Convergence has been achieved 


     Representation #  6 mode #   6

     Self-consistent Calculation

      iter #   1 total cpu time :    32.4 secs   av.it.:   4.1
      thresh= 1.000E-02 alpha_mix =  0.700 |ddv_scf|^2 =  1.510E-05

      iter #   2 total cpu time :    32.8 secs   av.it.:   6.6
      thresh= 3.886E-04 alpha_mix =  0.700 |ddv_scf|^2 =  2.430E-05

      iter #   3 total cpu time :    33.1 secs   av.it.:   6.1
      thresh= 4.929E-04 alpha_mix =  0.700 |ddv_scf|^2 =  9.631E-09

      iter #   4 total cpu time :    33.6 secs   av.it.:   6.8
      thresh= 9.814E-06 alpha_mix =  0.700 |ddv_scf|^2 =  8.313E-11

      iter #   5 total cpu time :    34.0 secs   av.it.:   6.3
      thresh= 9.117E-07 alpha_mix =  0.700 |ddv_scf|^2 =  5.141E-12

      iter #   6 total cpu time :    34.4 secs   av.it.:   6.7
      thresh= 2.267E-07 alpha_mix =  0.700 |ddv_scf|^2 =  1.309E-14

      iter #   7 total cpu time :    34.8 secs   av.it.:   6.8
      thresh= 1.144E-08 alpha_mix =  0.700 |ddv_scf|^2 =  6.671E-16

      iter #   8 total cpu time :    35.2 secs   av.it.:   6.9
      thresh= 2.583E-09 alpha_mix =  0.700 |ddv_scf|^2 =  3.543E-18

      iter #   9 total cpu time :    35.7 secs   av.it.:   7.4
      thresh= 1.882E-10 alpha_mix =  0.700 |ddv_scf|^2 =  1.145E-19

      iter #  10 total cpu time :    36.1 secs   av.it.:   7.3
      thresh= 3.384E-11 alpha_mix =  0.700 |ddv_scf|^2 =  8.203E-21

     End of self-consistent calculation

     Convergence has been achieved 
 
     Number of q in the star =    3
     List of q in the star:
          1   0.000000000  -0.577350269   0.000000000
          2   0.500000000   0.288675135   0.000000000
          3  -0.500000000   0.288675135   0.000000000

     Diagonalizing the dynamical matrix

     q = (    0.000000000  -0.577350269   0.000000000 ) 

 **************************************************************************
     freq (    1) =      11.501254 [THz] =     383.640545 [cm-1]
     freq (    2) =      18.420739 [THz] =     614.449720 [cm-1]
     freq (    3) =      19.653634 [THz] =     655.574657 [cm-1]
     freq (    4) =      40.264552 [THz] =    1343.080873 [cm-1]
     freq (    5) =      40.497977 [THz] =    1350.867098 [cm-1]
     freq (    6) =      43.123573 [THz] =    1438.447568 [cm-1]
 **************************************************************************

     Mode symmetry, D_2h (mmm)  point group:

     freq (  1 -  1) =        383.6  [cm-1]   --> B_2g               
     freq (  2 -  2) =        614.4  [cm-1]   --> B_1u               
     freq (  3 -  3) =        655.6  [cm-1]   --> B_1g               
     freq (  4 -  4) =       1343.1  [cm-1]   --> B_3u               
     freq (  5 -  5) =       1350.9  [cm-1]   --> A_g                
     freq (  6 -  6) =       1438.4  [cm-1]   --> B_2u               
 
     Number of q in the star =    3
     List of q in the star:
          1   0.000000000  -0.577350269   0.000000000
          2   0.500000000   0.288675135   0.000000000
          3  -0.500000000   0.288675135   0.000000000
       Writing drho for q = (  0.000000 -0.577350  0.000000) on file "drho_rot.0_-1o2_0"
       Writing drho for q = (  0.500000  0.288675  0.000000) on file "drho_rot.1o2_0_0"
       Writing drho for q = ( -0.500000  0.288675  0.000000) on file "drho_rot.-1o2_1o2_0"
 
     init_run     :      0.06s CPU      0.08s WALL (       1 calls)
     electrons    :      1.63s CPU      1.67s WALL (       1 calls)

     Called by init_run:
     wfcinit      :      0.00s CPU      0.00s WALL (       1 calls)
     potinit      :      0.02s CPU      0.04s WALL (       1 calls)

     Called by electrons:
     c_bands      :      1.63s CPU      1.67s WALL (       1 calls)
     v_of_rho     :      0.04s CPU      0.04s WALL (       2 calls)

     Called by c_bands:
     init_us_2    :      0.54s CPU      0.59s WALL (     510 calls)
     cegterg      :      0.97s CPU      0.99s WALL (      12 calls)

     Called by sum_band:

     Called by *egterg:
     h_psi        :     18.94s CPU     19.30s WALL (    4510 calls)
     g_psi        :      0.01s CPU      0.01s WALL (     157 calls)
     cdiaghg      :      0.03s CPU      0.03s WALL (     169 calls)

     Called by h_psi:
     h_psi:pot    :     18.81s CPU     19.17s WALL (    4510 calls)
     h_psi:calbec :      0.85s CPU      0.87s WALL (    4510 calls)
     vloc_psi     :     17.13s CPU     17.46s WALL (    4510 calls)
     add_vuspsi   :      0.80s CPU      0.82s WALL (    4510 calls)

     General routines
     calbec       :      1.59s CPU      1.63s WALL (    9157 calls)
     fft          :      0.62s CPU      0.63s WALL (    1222 calls)
     ffts         :      0.10s CPU      0.11s WALL (     210 calls)
     fftw         :     19.80s CPU     20.25s WALL (   57662 calls)
     davcio       :      0.30s CPU      0.42s WALL (    3057 calls)
 
     Parallel routines
     fft_scatter  :      2.41s CPU      2.47s WALL (   59094 calls)
 
     PHONON       :    34.48s CPU        36.26s WALL

     INITIALIZATION: 
     phq_setup    :      0.11s CPU      0.11s WALL (       2 calls)
     phq_init     :      0.17s CPU      0.18s WALL (       2 calls)
 
     phq_init     :      0.17s CPU      0.18s WALL (       2 calls)
     init_vloc    :      0.00s CPU      0.00s WALL (       2 calls)
     init_us_1    :      0.02s CPU      0.02s WALL (       2 calls)
 
     DYNAMICAL MATRIX:
     dynmat0      :      0.05s CPU      0.05s WALL (       2 calls)
     phqscf       :     32.23s CPU     33.79s WALL (       2 calls)
     dynmatrix    :      0.00s CPU      0.09s WALL (       2 calls)
 
     phqscf       :     32.23s CPU     33.79s WALL (       2 calls)
     solve_linter :     32.04s CPU     33.02s WALL (      10 calls)
     drhodv       :      0.17s CPU      0.19s WALL (      10 calls)
 
     dynmat0      :      0.05s CPU      0.05s WALL (       2 calls)
     dynmat_us    :      0.03s CPU      0.04s WALL (       2 calls)
     d2ionq       :      0.01s CPU      0.01s WALL (       2 calls)
 
     dynmat_us    :      0.03s CPU      0.04s WALL (       2 calls)
 
     phqscf       :     32.23s CPU     33.79s WALL (       2 calls)
     solve_linter :     32.04s CPU     33.02s WALL (      10 calls)
 
     solve_linter :     32.04s CPU     33.02s WALL (      10 calls)
     dvqpsi_us    :      0.45s CPU      0.46s WALL (      54 calls)
     ortho        :      0.13s CPU      0.13s WALL (     462 calls)
     cgsolve      :     20.28s CPU     20.65s WALL (     462 calls)
     incdrhoscf   :      3.09s CPU      3.20s WALL (     462 calls)
     vpsifft      :      2.47s CPU      2.57s WALL (     408 calls)
     dv_of_drho   :      1.27s CPU      1.31s WALL (     100 calls)
     mix_pot      :      0.28s CPU      0.46s WALL (      86 calls)
     ef_shift     :      0.05s CPU      0.06s WALL (      36 calls)
     localdos     :      0.10s CPU      0.11s WALL (       4 calls)
     psymdvscf    :      2.81s CPU      2.81s WALL (      86 calls)
 
     dvqpsi_us    :      0.45s CPU      0.46s WALL (      54 calls)
     dvqpsi_us_on :      0.06s CPU      0.06s WALL (      54 calls)
 
     cgsolve      :     20.28s CPU     20.65s WALL (     462 calls)
     ch_psi       :     19.67s CPU     20.03s WALL (    4329 calls)
 
     ch_psi       :     19.67s CPU     20.03s WALL (    4329 calls)
     h_psi        :     18.94s CPU     19.30s WALL (    4510 calls)
     last         :      1.62s CPU      1.65s WALL (    4329 calls)
 
     h_psi        :     18.94s CPU     19.30s WALL (    4510 calls)
     add_vuspsi   :      0.80s CPU      0.82s WALL (    4510 calls)
 
     incdrhoscf   :      3.09s CPU      3.20s WALL (     462 calls)
 
 
      General routines
     calbec       :      1.59s CPU      1.63s WALL (    9157 calls)
     fft          :      0.62s CPU      0.63s WALL (    1222 calls)
     ffts         :      0.10s CPU      0.11s WALL (     210 calls)
     fftw         :     19.80s CPU     20.25s WALL (   57662 calls)
     davcio       :      0.30s CPU      0.42s WALL (    3057 calls)
     write_rec    :      0.11s CPU      0.74s WALL (      96 calls)
 
 
     PHONON       :    34.48s CPU        36.26s WALL

 
   This run was terminated on:  16:17: 0  21Jun2017            

=------------------------------------------------------------------------------=
   JOB DONE.
=------------------------------------------------------------------------------=
