
     Program PWSCF v.6.beta (svn rev. 12981M) starts on 23Sep2016 at 15:28:27 

     This program is part of the open-source Quantum ESPRESSO suite
     for quantum simulation of materials; please cite
         "P. Giannozzi et al., J. Phys.:Condens. Matter 21 395502 (2009);
          URL http://www.quantum-espresso.org", 
     in publications or presentations arising from this work. More details at
     http://www.quantum-espresso.org/quote
 
           HOST :    @host@
           ARCH :    x86_64
             CC :    cc
            CPP :    cpp
            F90 :    mpif90
            F77 :    ifort
         DFLAGS :    -D__INTEL -D__FFTW3 -D__MPI -D__PARA
      BLAS LIBS :    -lmkl_intel_lp64  -lmkl_sequential -lmkl_core
    LAPACK LIBS :    
       FFT LIBS :    -lfftw3
      MASS LIBS :    

     Parallel version (MPI), running on     4 processors
     K-points division:     npool     =       4
     Reading input from pw.in
Warning: card  C    12.0107  C.ADC_NC.UPF ignored

     Current dimensions of program PWSCF are:
     Max number of different atomic species (ntypx) = 10
     Max number of k-points (npk) = 200000
     Max angular momentum in pseudopotentials (lmaxx) =  3
               file C.pbe-mt_fhi.UPF: wavefunction(s)  4f renormalized

     Subspace diagonalization in iterative solution of the eigenvalue problem:
     a serial algorithm will be used

 
     G-vector sticks info
     --------------------
     sticks:   dense  smooth     PW     G-vecs:    dense   smooth      PW
     Sum         421     421    121                20125    20125    3365
 


     bravais-lattice index     =            4
     lattice parameter (alat)  =       4.6074  a.u.
     unit-cell volume          =     254.1126 (a.u.)^3
     number of atoms/cell      =            2
     number of atomic types    =            1
     number of electrons       =         8.00
     number of Kohn-Sham states=            8
     kinetic-energy cutoff     =      70.0000  Ry
     charge density cutoff     =     280.0000  Ry
     convergence threshold     =      1.0E-12
     mixing beta               =       0.7000
     number of iterations used =            8  plain     mixing
     Exchange-correlation      = PBE ( 1  4  3  4 0 0)

     celldm(1)=   4.607423  celldm(2)=   0.000000  celldm(3)=   3.000000
     celldm(4)=   0.000000  celldm(5)=   0.000000  celldm(6)=   0.000000

     crystal axes: (cart. coord. in units of alat)
               a(1) = (   1.000000   0.000000   0.000000 )  
               a(2) = (  -0.500000   0.866025   0.000000 )  
               a(3) = (   0.000000   0.000000   3.000000 )  

     reciprocal axes: (cart. coord. in units 2 pi/alat)
               b(1) = (  1.000000  0.577350  0.000000 )  
               b(2) = (  0.000000  1.154701  0.000000 )  
               b(3) = (  0.000000  0.000000  0.333333 )  


     PseudoPot. # 1 for  C read from file:
     /home/paulatto/espresso/D3Q/Examples/Graphene/UPF/C.pbe-mt_fhi.UPF
     MD5 check sum: 058ca341f9d6d5327d9962fd88a91b65
     Pseudo is Norm-conserving, Zval =  4.0
     Generated using FHI98PP, converted with fhi2upf.x v.5.0.2
     Using radial grid of  461 points,  3 beta functions with: 
                l(1) =   0
                l(2) =   1
                l(3) =   3

     atomic species   valence    mass     pseudopotential
        C              4.00    12.01070      C( 1.00)

     24 Sym. Ops., with inversion, found


                                    s                        frac. trans.

      isym =  1     identity                                     

 cryst.   s( 1) = (     1          0          0      )
                  (     0          1          0      )
                  (     0          0          1      )

 cart.    s( 1) = (  1.0000000  0.0000000  0.0000000 )
                  (  0.0000000  1.0000000  0.0000000 )
                  (  0.0000000  0.0000000  1.0000000 )


      isym =  2     180 deg rotation - cart. axis [0,0,1]        

 cryst.   s( 2) = (    -1          0          0      )
                  (     0         -1          0      )
                  (     0          0          1      )

 cart.    s( 2) = ( -1.0000000  0.0000000  0.0000000 )
                  (  0.0000000 -1.0000000  0.0000000 )
                  (  0.0000000  0.0000000  1.0000000 )


      isym =  3     180 deg rotation - cart. axis [0,1,0]        

 cryst.   s( 3) = (    -1          0          0      )
                  (     1          1          0      )
                  (     0          0         -1      )

 cart.    s( 3) = ( -1.0000000  0.0000000  0.0000000 )
                  (  0.0000000  1.0000000  0.0000000 )
                  (  0.0000000  0.0000000 -1.0000000 )


      isym =  4     180 deg rotation - cart. axis [1,0,0]        

 cryst.   s( 4) = (     1          0          0      )
                  (    -1         -1          0      )
                  (     0          0         -1      )

 cart.    s( 4) = (  1.0000000  0.0000000  0.0000000 )
                  (  0.0000000 -1.0000000  0.0000000 )
                  (  0.0000000  0.0000000 -1.0000000 )


      isym =  5      60 deg rotation - cryst. axis [0,0,1]       

 cryst.   s( 5) = (     1          1          0      )
                  (    -1          0          0      )
                  (     0          0          1      )

 cart.    s( 5) = (  0.5000000 -0.8660254  0.0000000 )
                  (  0.8660254  0.5000000  0.0000000 )
                  (  0.0000000  0.0000000  1.0000000 )


      isym =  6      60 deg rotation - cryst. axis [0,0,-1]      

 cryst.   s( 6) = (     0         -1          0      )
                  (     1          1          0      )
                  (     0          0          1      )

 cart.    s( 6) = (  0.5000000  0.8660254  0.0000000 )
                  ( -0.8660254  0.5000000  0.0000000 )
                  (  0.0000000  0.0000000  1.0000000 )


      isym =  7     120 deg rotation - cryst. axis [0,0,1]       

 cryst.   s( 7) = (     0          1          0      )
                  (    -1         -1          0      )
                  (     0          0          1      )

 cart.    s( 7) = ( -0.5000000 -0.8660254  0.0000000 )
                  (  0.8660254 -0.5000000  0.0000000 )
                  (  0.0000000  0.0000000  1.0000000 )


      isym =  8     120 deg rotation - cryst. axis [0,0,-1]      

 cryst.   s( 8) = (    -1         -1          0      )
                  (     1          0          0      )
                  (     0          0          1      )

 cart.    s( 8) = ( -0.5000000  0.8660254  0.0000000 )
                  ( -0.8660254 -0.5000000  0.0000000 )
                  (  0.0000000  0.0000000  1.0000000 )


      isym =  9     180 deg rotation - cryst. axis [1,-1,0]      

 cryst.   s( 9) = (     0         -1          0      )
                  (    -1          0          0      )
                  (     0          0         -1      )

 cart.    s( 9) = (  0.5000000 -0.8660254  0.0000000 )
                  ( -0.8660254 -0.5000000  0.0000000 )
                  (  0.0000000  0.0000000 -1.0000000 )


      isym = 10     180 deg rotation - cryst. axis [2,1,0]       

 cryst.   s(10) = (     1          1          0      )
                  (     0         -1          0      )
                  (     0          0         -1      )

 cart.    s(10) = (  0.5000000  0.8660254  0.0000000 )
                  (  0.8660254 -0.5000000  0.0000000 )
                  (  0.0000000  0.0000000 -1.0000000 )


      isym = 11     180 deg rotation - cryst. axis [0,1,0]       

 cryst.   s(11) = (    -1         -1          0      )
                  (     0          1          0      )
                  (     0          0         -1      )

 cart.    s(11) = ( -0.5000000 -0.8660254  0.0000000 )
                  ( -0.8660254  0.5000000  0.0000000 )
                  (  0.0000000  0.0000000 -1.0000000 )


      isym = 12     180 deg rotation - cryst. axis [1,1,0]       

 cryst.   s(12) = (     0          1          0      )
                  (     1          0          0      )
                  (     0          0         -1      )

 cart.    s(12) = ( -0.5000000  0.8660254  0.0000000 )
                  (  0.8660254  0.5000000  0.0000000 )
                  (  0.0000000  0.0000000 -1.0000000 )


      isym = 13     inversion                                    

 cryst.   s(13) = (    -1          0          0      )
                  (     0         -1          0      )
                  (     0          0         -1      )

 cart.    s(13) = ( -1.0000000  0.0000000  0.0000000 )
                  (  0.0000000 -1.0000000  0.0000000 )
                  (  0.0000000  0.0000000 -1.0000000 )


      isym = 14     inv. 180 deg rotation - cart. axis [0,0,1]   

 cryst.   s(14) = (     1          0          0      )
                  (     0          1          0      )
                  (     0          0         -1      )

 cart.    s(14) = (  1.0000000  0.0000000  0.0000000 )
                  (  0.0000000  1.0000000  0.0000000 )
                  (  0.0000000  0.0000000 -1.0000000 )


      isym = 15     inv. 180 deg rotation - cart. axis [0,1,0]   

 cryst.   s(15) = (     1          0          0      )
                  (    -1         -1          0      )
                  (     0          0          1      )

 cart.    s(15) = (  1.0000000  0.0000000  0.0000000 )
                  (  0.0000000 -1.0000000  0.0000000 )
                  (  0.0000000  0.0000000  1.0000000 )


      isym = 16     inv. 180 deg rotation - cart. axis [1,0,0]   

 cryst.   s(16) = (    -1          0          0      )
                  (     1          1          0      )
                  (     0          0          1      )

 cart.    s(16) = ( -1.0000000  0.0000000  0.0000000 )
                  (  0.0000000  1.0000000  0.0000000 )
                  (  0.0000000  0.0000000  1.0000000 )


      isym = 17     inv.  60 deg rotation - cryst. axis [0,0,1]  

 cryst.   s(17) = (    -1         -1          0      )
                  (     1          0          0      )
                  (     0          0         -1      )

 cart.    s(17) = ( -0.5000000  0.8660254  0.0000000 )
                  ( -0.8660254 -0.5000000  0.0000000 )
                  (  0.0000000  0.0000000 -1.0000000 )


      isym = 18     inv.  60 deg rotation - cryst. axis [0,0,-1] 

 cryst.   s(18) = (     0          1          0      )
                  (    -1         -1          0      )
                  (     0          0         -1      )

 cart.    s(18) = ( -0.5000000 -0.8660254  0.0000000 )
                  (  0.8660254 -0.5000000  0.0000000 )
                  (  0.0000000  0.0000000 -1.0000000 )


      isym = 19     inv. 120 deg rotation - cryst. axis [0,0,1]  

 cryst.   s(19) = (     0         -1          0      )
                  (     1          1          0      )
                  (     0          0         -1      )

 cart.    s(19) = (  0.5000000  0.8660254  0.0000000 )
                  ( -0.8660254  0.5000000  0.0000000 )
                  (  0.0000000  0.0000000 -1.0000000 )


      isym = 20     inv. 120 deg rotation - cryst. axis [0,0,-1] 

 cryst.   s(20) = (     1          1          0      )
                  (    -1          0          0      )
                  (     0          0         -1      )

 cart.    s(20) = (  0.5000000 -0.8660254  0.0000000 )
                  (  0.8660254  0.5000000  0.0000000 )
                  (  0.0000000  0.0000000 -1.0000000 )


      isym = 21     inv. 180 deg rotation - cryst. axis [1,-1,0] 

 cryst.   s(21) = (     0          1          0      )
                  (     1          0          0      )
                  (     0          0          1      )

 cart.    s(21) = ( -0.5000000  0.8660254  0.0000000 )
                  (  0.8660254  0.5000000  0.0000000 )
                  (  0.0000000  0.0000000  1.0000000 )


      isym = 22     inv. 180 deg rotation - cryst. axis [2,1,0]  

 cryst.   s(22) = (    -1         -1          0      )
                  (     0          1          0      )
                  (     0          0          1      )

 cart.    s(22) = ( -0.5000000 -0.8660254  0.0000000 )
                  ( -0.8660254  0.5000000  0.0000000 )
                  (  0.0000000  0.0000000  1.0000000 )


      isym = 23     inv. 180 deg rotation - cryst. axis [0,1,0]  

 cryst.   s(23) = (     1          1          0      )
                  (     0         -1          0      )
                  (     0          0          1      )

 cart.    s(23) = (  0.5000000  0.8660254  0.0000000 )
                  (  0.8660254 -0.5000000  0.0000000 )
                  (  0.0000000  0.0000000  1.0000000 )


      isym = 24     inv. 180 deg rotation - cryst. axis [1,1,0]  

 cryst.   s(24) = (     0         -1          0      )
                  (    -1          0          0      )
                  (     0          0          1      )

 cart.    s(24) = (  0.5000000 -0.8660254  0.0000000 )
                  ( -0.8660254 -0.5000000  0.0000000 )
                  (  0.0000000  0.0000000  1.0000000 )


     point group D_6h(6/mmm)
     there are 12 classes
     the character table:

       E     2C6   2C3   C2    3C2'  3C2'' i     2S3   2S6   s_h   3s_d  3s_v 
A_1g   1.00  1.00  1.00  1.00  1.00  1.00  1.00  1.00  1.00  1.00  1.00  1.00
A_2g   1.00  1.00  1.00  1.00 -1.00 -1.00  1.00  1.00  1.00  1.00 -1.00 -1.00
B_1g   1.00 -1.00  1.00 -1.00  1.00 -1.00  1.00 -1.00  1.00 -1.00  1.00 -1.00
B_2g   1.00 -1.00  1.00 -1.00 -1.00  1.00  1.00 -1.00  1.00 -1.00 -1.00  1.00
E_1g   2.00  1.00 -1.00 -2.00  0.00  0.00  2.00  1.00 -1.00 -2.00  0.00  0.00
E_2g   2.00 -1.00 -1.00  2.00  0.00  0.00  2.00 -1.00 -1.00  2.00  0.00  0.00
A_1u   1.00  1.00  1.00  1.00  1.00  1.00 -1.00 -1.00 -1.00 -1.00 -1.00 -1.00
A_2u   1.00  1.00  1.00  1.00 -1.00 -1.00 -1.00 -1.00 -1.00 -1.00  1.00  1.00
B_1u   1.00 -1.00  1.00 -1.00  1.00 -1.00 -1.00  1.00 -1.00  1.00 -1.00  1.00
B_2u   1.00 -1.00  1.00 -1.00 -1.00  1.00 -1.00  1.00 -1.00  1.00  1.00 -1.00
E_1u   2.00  1.00 -1.00 -2.00  0.00  0.00 -2.00 -1.00  1.00  2.00  0.00  0.00
E_2u   2.00 -1.00 -1.00  2.00  0.00  0.00 -2.00  1.00  1.00 -2.00  0.00  0.00

     the symmetry operations in each class and the name of the first element:

     E        1
          identity                                               
     2C6      5    6
           60 deg rotation - cryst. axis [0,0,1]                 
     2C3      7    8
          120 deg rotation - cryst. axis [0,0,1]                 
     C2       2
          180 deg rotation - cart. axis [0,0,1]                  
     3C2'     4   12   11
          180 deg rotation - cart. axis [1,0,0]                  
     3C2''    3    9   10
          180 deg rotation - cart. axis [0,1,0]                  
     i       13
          inversion                                              
     2S3     17   18
          inv.  60 deg rotation - cryst. axis [0,0,1]            
     2S6     19   20
          inv. 120 deg rotation - cryst. axis [0,0,1]            
     s_h     14
          inv. 180 deg rotation - cart. axis [0,0,1]             
     3s_d    16   24   23
          inv. 180 deg rotation - cart. axis [1,0,0]             
     3s_v    15   21   22
          inv. 180 deg rotation - cart. axis [0,1,0]             

   Cartesian axes

     site n.     atom                  positions (alat units)
         1           C   tau(   1) = (   0.5000000   0.2886800   0.0000000  )
         2           C   tau(   2) = (   0.5000000  -0.2886800   0.0000000  )

   Crystallographic axes

     site n.     atom                  positions (cryst. coord.)
         1           C   tau(   1) = (  0.6666695  0.3333390  0.0000000  )
         2           C   tau(   2) = (  0.3333305 -0.3333390  0.0000000  )

     number of k points=    10  Marzari-Vanderbilt smearing, width (Ry)=  0.2500
                       cart. coord. in units 2pi/alat
        k(    1) = (   0.0000000   0.0000000   0.0000000), wk =   0.0312500
        k(    2) = (   0.0000000   0.1443376   0.0000000), wk =   0.1875000
        k(    3) = (   0.0000000   0.2886751   0.0000000), wk =   0.1875000
        k(    4) = (   0.0000000   0.4330127   0.0000000), wk =   0.1875000
        k(    5) = (   0.0000000  -0.5773503   0.0000000), wk =   0.0937500
        k(    6) = (   0.1250000   0.2165064   0.0000000), wk =   0.1875000
        k(    7) = (   0.1250000   0.3608439   0.0000000), wk =   0.3750000
        k(    8) = (   0.1250000   0.5051815   0.0000000), wk =   0.3750000
        k(    9) = (   0.2500000   0.4330127   0.0000000), wk =   0.1875000
        k(   10) = (   0.2500000   0.5773503   0.0000000), wk =   0.1875000

                       cryst. coord.
        k(    1) = (   0.0000000   0.0000000   0.0000000), wk =   0.0312500
        k(    2) = (   0.0000000   0.1250000   0.0000000), wk =   0.1875000
        k(    3) = (   0.0000000   0.2500000   0.0000000), wk =   0.1875000
        k(    4) = (   0.0000000   0.3750000   0.0000000), wk =   0.1875000
        k(    5) = (   0.0000000  -0.5000000   0.0000000), wk =   0.0937500
        k(    6) = (   0.1250000   0.1250000   0.0000000), wk =   0.1875000
        k(    7) = (   0.1250000   0.2500000   0.0000000), wk =   0.3750000
        k(    8) = (   0.1250000   0.3750000   0.0000000), wk =   0.3750000
        k(    9) = (   0.2500000   0.2500000   0.0000000), wk =   0.1875000
        k(   10) = (   0.2500000   0.3750000   0.0000000), wk =   0.1875000

     Dense  grid:    20125 G-vectors     FFT dimensions: (  25,  25,  75)

     Estimated max dynamical RAM per process >      14.61Mb

     Estimated total allocated dynamical RAM >      58.44Mb

     Initial potential from superposition of free atoms

     starting charge    7.99992, renormalised to    8.00000
     Starting wfc are   32 randomized atomic wfcs

     total cpu time spent up to now is        0.2 secs

     per-process dynamical memory:    14.8 Mb

     Self-consistent Calculation

     iteration #  1     ecut=    70.00 Ry     beta=0.70
     Davidson diagonalization with overlap
     ethr =  1.00E-02,  avg # of iterations =  2.6

     total cpu time spent up to now is        0.3 secs

     total energy              =     -22.74755887 Ry
     Harris-Foulkes estimate   =     -22.89055909 Ry
     estimated scf accuracy    <       0.24056994 Ry

     iteration #  2     ecut=    70.00 Ry     beta=0.70
     Davidson diagonalization with overlap
     ethr =  3.01E-03,  avg # of iterations =  2.8

     total cpu time spent up to now is        0.4 secs

     total energy              =     -22.78203127 Ry
     Harris-Foulkes estimate   =     -22.78204061 Ry
     estimated scf accuracy    <       0.00297165 Ry

     iteration #  3     ecut=    70.00 Ry     beta=0.70
     Davidson diagonalization with overlap
     ethr =  3.71E-05,  avg # of iterations =  3.7

     total cpu time spent up to now is        0.5 secs

     total energy              =     -22.78239783 Ry
     Harris-Foulkes estimate   =     -22.78236081 Ry
     estimated scf accuracy    <       0.00019947 Ry

     iteration #  4     ecut=    70.00 Ry     beta=0.70
     Davidson diagonalization with overlap
     ethr =  2.49E-06,  avg # of iterations =  2.7

     total cpu time spent up to now is        0.6 secs

     total energy              =     -22.78240541 Ry
     Harris-Foulkes estimate   =     -22.78240479 Ry
     estimated scf accuracy    <       0.00000082 Ry

     iteration #  5     ecut=    70.00 Ry     beta=0.70
     Davidson diagonalization with overlap
     ethr =  1.02E-08,  avg # of iterations =  2.6

     total cpu time spent up to now is        0.8 secs

     total energy              =     -22.78240591 Ry
     Harris-Foulkes estimate   =     -22.78240589 Ry
     estimated scf accuracy    <       0.00000003 Ry

     iteration #  6     ecut=    70.00 Ry     beta=0.70
     Davidson diagonalization with overlap
     ethr =  4.15E-10,  avg # of iterations =  2.0

     total cpu time spent up to now is        0.9 secs

     total energy              =     -22.78240592 Ry
     Harris-Foulkes estimate   =     -22.78240592 Ry
     estimated scf accuracy    <          1.3E-09 Ry

     iteration #  7     ecut=    70.00 Ry     beta=0.70
     Davidson diagonalization with overlap
     ethr =  1.66E-11,  avg # of iterations =  2.0

     total cpu time spent up to now is        1.0 secs

     total energy              =     -22.78240592 Ry
     Harris-Foulkes estimate   =     -22.78240592 Ry
     estimated scf accuracy    <          5.3E-11 Ry

     iteration #  8     ecut=    70.00 Ry     beta=0.70
     Davidson diagonalization with overlap
     ethr =  6.68E-13,  avg # of iterations =  2.3

     total cpu time spent up to now is        1.1 secs

     total energy              =     -22.78240592 Ry
     Harris-Foulkes estimate   =     -22.78240592 Ry
     estimated scf accuracy    <          1.4E-12 Ry

     iteration #  9     ecut=    70.00 Ry     beta=0.70
     Davidson diagonalization with overlap
     ethr =  1.00E-13,  avg # of iterations =  1.2

     total cpu time spent up to now is        1.2 secs

     End of self-consistent calculation

          k = 0.0000 0.0000 0.0000 (  2509 PWs)   bands (ev):

   -18.5358  -6.7059  -1.8334  -1.8324   3.7187   7.2163   9.4847   9.7532

     occupation numbers 
     1.0000   1.0360   0.8529   0.8527   0.0292   0.0003   0.0000   0.0000

          k = 0.0000 0.1443 0.0000 (  2509 PWs)   bands (ev):

   -18.1581  -6.2547  -3.2182  -2.5556   4.2326   7.7070   9.7042  10.1285

     occupation numbers 
     1.0000   1.0476   1.0373   0.9673   0.0167   0.0001   0.0000   0.0000

          k = 0.0000 0.2887 0.0000 (  2503 PWs)   bands (ev):

   -17.0352  -6.2490  -4.9315  -3.8968   5.7730   8.5071   9.2750   9.5247

     occupation numbers 
     1.0000   1.0478   1.0799   1.0744   0.0024   0.0000   0.0000   0.0000

          k = 0.0000 0.4330 0.0000 (  2510 PWs)   bands (ev):

   -15.2060  -9.5718  -4.9276  -2.8953   5.0129   8.3197   9.1205  11.5823

     occupation numbers 
     1.0000   1.0022   1.0800   1.0075   0.0066   0.0000   0.0000   0.0000

          k = 0.0000-0.5774 0.0000 (  2516 PWs)   bands (ev):

   -13.1269 -12.1928  -5.2982  -1.2908   2.8243   8.9218  11.8088  11.9441

     occupation numbers 
     1.0000   1.0000   1.0729   0.7458   0.0695   0.0000   0.0000   0.0000

          k = 0.1250 0.2165 0.0000 (  2508 PWs)   bands (ev):

   -17.4078  -5.3659  -5.0250  -3.9936   5.2608   8.6742   9.6023  10.5150

     occupation numbers 
     1.0000   1.0714   1.0784   1.0771   0.0048   0.0000   0.0000   0.0000

          k = 0.1250 0.3608 0.0000 (  2508 PWs)   bands (ev):

   -15.9313  -7.8455  -5.5375  -3.6602   6.4810   7.3110  10.5478  10.8031

     occupation numbers 
     1.0000   1.0145   1.0671   1.0651   0.0009   0.0002   0.0000   0.0000

          k = 0.1250 0.5052 0.0000 (  2513 PWs)   bands (ev):

   -13.8109 -10.9022  -6.3153  -1.5056   3.4106  10.3202  10.5497  12.9464

     occupation numbers 
     1.0000   1.0004   1.0460   0.7899   0.0400   0.0000   0.0000   0.0000

          k = 0.2500 0.4330 0.0000 (  2542 PWs)   bands (ev):

   -14.1506  -9.3515  -7.8912  -1.6878   4.0295   9.8498  12.0773  13.6670

     occupation numbers 
     1.0000   1.0029   1.0139   0.8256   0.0210   0.0000   0.0000   0.0000

          k = 0.2500 0.5774 0.0000 (  2528 PWs)   bands (ev):

   -12.1710 -11.3459  -8.6782   0.0825   2.1031  12.1791  13.1307  13.2966

     occupation numbers 
     1.0000   1.0002   1.0063   0.4469   0.1272   0.0000   0.0000   0.0000

     the Fermi energy is     0.3077 ev

!    total energy              =     -22.78240592 Ry
     Harris-Foulkes estimate   =     -22.78240592 Ry
     estimated scf accuracy    <          2.3E-14 Ry

     The total energy is the sum of the following terms:

     one-electron contribution =     -56.84408090 Ry
     hartree contribution      =      30.63342757 Ry
     xc contribution           =      -7.06933871 Ry
     ewald contribution        =      10.41488012 Ry
     smearing contrib. (-TS)   =       0.08270600 Ry

     convergence has been achieved in   9 iterations

     Writing output data file gene.save
 
     init_run     :      0.15s CPU      0.16s WALL (       1 calls)
     electrons    :      0.89s CPU      0.96s WALL (       1 calls)

     Called by init_run:
     wfcinit      :      0.10s CPU      0.09s WALL (       1 calls)
     wfcinit:atom :      0.00s CPU      0.00s WALL (       3 calls)
     wfcinit:wfcr :      0.08s CPU      0.08s WALL (       3 calls)
     potinit      :      0.01s CPU      0.02s WALL (       1 calls)

     Called by electrons:
     c_bands      :      0.55s CPU      0.61s WALL (       9 calls)
     sum_band     :      0.12s CPU      0.13s WALL (       9 calls)
     v_of_rho     :      0.17s CPU      0.19s WALL (      10 calls)
     v_h          :      0.00s CPU      0.01s WALL (      10 calls)
     v_xc         :      0.17s CPU      0.18s WALL (      10 calls)
     mix_rho      :      0.03s CPU      0.04s WALL (       9 calls)

     Called by c_bands:
     init_us_2    :      0.01s CPU      0.03s WALL (      57 calls)
     cegterg      :      0.49s CPU      0.49s WALL (      27 calls)

     Called by sum_band:

     Called by *egterg:
     h_psi        :      0.48s CPU      0.49s WALL (      98 calls)
     g_psi        :      0.00s CPU      0.00s WALL (      68 calls)
     cdiaghg      :      0.01s CPU      0.01s WALL (      95 calls)
     cegterg:over :      0.02s CPU      0.02s WALL (      68 calls)
     cegterg:upda :      0.02s CPU      0.01s WALL (      68 calls)
     cegterg:last :      0.01s CPU      0.01s WALL (      27 calls)

     Called by h_psi:
     h_psi:pot    :      0.48s CPU      0.49s WALL (      98 calls)
     h_psi:calbec :      0.02s CPU      0.02s WALL (      98 calls)
     vloc_psi     :      0.44s CPU      0.44s WALL (      98 calls)
     add_vuspsi   :      0.01s CPU      0.02s WALL (      98 calls)

     General routines
     calbec       :      0.02s CPU      0.02s WALL (      98 calls)
     fft          :      0.04s CPU      0.05s WALL (     109 calls)
     fftw         :      0.48s CPU      0.45s WALL (    1476 calls)
     davcio       :      0.00s CPU      0.00s WALL (       3 calls)
 
     Parallel routines
     fft_scatter  :      0.06s CPU      0.07s WALL (    1585 calls)
 
     PWSCF        :     1.11s CPU         1.22s WALL

 
   This run was terminated on:  15:28:28  23Sep2016            

=------------------------------------------------------------------------------=
   JOB DONE.
=------------------------------------------------------------------------------=
