--------------------------------------------------------------------------
[[25178,1],0]: A high-performance Open MPI point-to-point messaging module
was unable to find any relevant network interfaces:

Module: OpenFabrics (openib)
  Host: H388X

Another transport will be used instead, although this may result in
lower performance.

NOTE: You can disable this warning by setting the MCA parameter
btl_base_warn_component_unused to 0.
--------------------------------------------------------------------------

     Program PHONON v.6.7GPU starts on 19Apr2021 at 10:59:34 

     This program is part of the open-source Quantum ESPRESSO suite
     for quantum simulation of materials; please cite
         "P. Giannozzi et al., J. Phys.:Condens. Matter 21 395502 (2009);
         "P. Giannozzi et al., J. Phys.:Condens. Matter 29 465901 (2017);
         "P. Giannozzi et al., J. Chem. Phys. 152 154105 (2020);
          URL http://www.quantum-espresso.org", 
     in publications or presentations arising from this work. More details at
     http://www.quantum-espresso.org/quote

     Parallel version (MPI), running on     4 processors

     MPI processes distributed on     1 nodes
     R & G space division:  proc/nbgrp/npool/nimage =       4
     Reading input from ph.in

     Reading xml data from directory:

     ./tmp/silicon.save/

     IMPORTANT: XC functional enforced from input :
     Exchange-correlation= PZ
                           (   1   1   0   0   0   0   0)
     Any further DFT definition will be discarded
     Please, verify this is what you really want


     Parallelization info
     --------------------
     sticks:   dense  smooth     PW     G-vecs:    dense   smooth      PW
     Min          87      87     30                 1070     1070     205
     Max          88      88     31                 1073     1073     206
     Sum         349     349    121                 4285     4285     821

     Using Slab Decomposition

     Reading collected, re-writing distributed wavefunctions


     Dynamical matrices for ( 4, 4, 4)  uniform grid of q-points
     (   8 q-points):
       N         xq(1)         xq(2)         xq(3) 
       1   0.000000000   0.000000000   0.000000000
       2  -0.250000000   0.250000000  -0.250000000
       3   0.500000000  -0.500000000   0.500000000
       4   0.000000000   0.500000000   0.000000000
       5   0.750000000  -0.250000000   0.750000000
       6   0.500000000   0.000000000   0.500000000
       7   0.000000000  -1.000000000   0.000000000
       8  -0.500000000  -1.000000000   0.000000000

     Calculation of q =    0.0000000   0.0000000   0.0000000

     Ph                                                                         

     bravais-lattice index     =            2
     lattice parameter (alat)  =      10.3000  a.u.
     unit-cell volume          =     273.1818 (a.u.)^3
     number of atoms/cell      =            2
     number of atomic types    =            1
     kinetic-energy cut-off    =      24.0000  Ry
     charge density cut-off    =      96.0000  Ry
     convergence threshold     =      1.0E-16
     beta                      =       0.7000
     number of iterations used =            4
     Exchange-correlation= PZ
                           (   1   1   0   0   0   0   0)


     celldm(1)=   10.30000  celldm(2)=    0.00000  celldm(3)=    0.00000
     celldm(4)=    0.00000  celldm(5)=    0.00000  celldm(6)=    0.00000

     crystal axes: (cart. coord. in units of alat)
               a(1) = ( -0.5000  0.0000  0.5000 )  
               a(2) = (  0.0000  0.5000  0.5000 )  
               a(3) = ( -0.5000  0.5000  0.0000 )  

     reciprocal axes: (cart. coord. in units 2 pi/alat)
               b(1) = ( -1.0000 -1.0000  1.0000 )  
               b(2) = (  1.0000  1.0000  1.0000 )  
               b(3) = ( -1.0000  1.0000 -1.0000 )  


     Atoms inside the unit cell: 

     Cartesian axes

     site n.  atom      mass           positions (alat units)
        1     Si  28.0860   tau(    1) = (    0.00000    0.00000    0.00000  )
        2     Si  28.0860   tau(    2) = (    0.25000    0.25000    0.25000  )

     Computing dynamical matrix for 
                    q = (   0.0000000   0.0000000   0.0000000 )

     49 Sym.Ops. (with q -> -q+G )


     G cutoff =  257.9799  (   1073 G-vectors)     FFT grid: ( 24, 24, 24)
     number of k points=     8

     PseudoPot. # 1 for Si read from file:
     ../Si.pz-rrkj.UPF
     MD5 check sum: 884b380b739b48e9cd334294cddc9a8d
     Pseudo is Norm-conserving, Zval =  4.0
     Generated using "atomic" code by A. Dal Corso (espresso distribution)
     Using radial grid of 1141 points,  2 beta functions with: 
                l(1) =   0
                l(2) =   1

     Mode symmetry, O_h (m-3m)  point group:


     Electric field:
     Dielectric constant
     Born effective charges in two ways 


     Atomic displacements:
     There are    2 irreducible representations

     Representation     1      3 modes -  To be done

     Representation     2      3 modes -  To be done



     Alpha used in Ewald sum =   1.0000
     PHONON       :      0.09s CPU      0.13s WALL


     Electric Fields Calculation

      iter #   1 total cpu time :     1.0 secs   av.it.:   5.7
      thresh= 1.000E-02 alpha_mix =  0.700 |ddv_scf|^2 =  5.446E-07

      iter #   2 total cpu time :     1.5 secs   av.it.:   8.9
      thresh= 7.380E-05 alpha_mix =  0.700 |ddv_scf|^2 =  2.414E-08

      iter #   3 total cpu time :     1.9 secs   av.it.:   9.0
      thresh= 1.554E-05 alpha_mix =  0.700 |ddv_scf|^2 =  4.886E-10

      iter #   4 total cpu time :     2.4 secs   av.it.:   9.2
      thresh= 2.211E-06 alpha_mix =  0.700 |ddv_scf|^2 =  2.723E-12

      iter #   5 total cpu time :     2.9 secs   av.it.:   8.8
      thresh= 1.650E-07 alpha_mix =  0.700 |ddv_scf|^2 =  8.034E-16

      iter #   6 total cpu time :     3.3 secs   av.it.:   9.0
      thresh= 2.834E-09 alpha_mix =  0.700 |ddv_scf|^2 =  1.596E-17

     End of electric fields calculation

          Dielectric constant in cartesian axis 

          (      25.209361310      -0.000000000       0.000000000 )
          (      -0.000000000      25.209361310       0.000000000 )
          (       0.000000000       0.000000000      25.209361310 )

          Effective charges (d Force / dE) in cartesian axis

           atom      1   Si 
      Ex  (       -1.22973        0.00000        0.00000 )
      Ey  (        0.00000       -1.22973        0.00000 )
      Ez  (        0.00000       -0.00000       -1.22973 )
           atom      2   Si 
      Ex  (       -1.22973        0.00000        0.00000 )
      Ey  (        0.00000       -1.22973       -0.00000 )
      Ez  (        0.00000        0.00000       -1.22973 )


     Representation #   1 modes #   1   2   3

     Self-consistent Calculation

      iter #   1 total cpu time :     4.3 secs   av.it.:   4.8
      thresh= 1.000E-02 alpha_mix =  0.700 |ddv_scf|^2 =  1.076E-07
[H388X:28243] 3 more processes have sent help message help-mpi-btl-base.txt / btl:no-nics
[H388X:28243] Set MCA parameter "orte_base_help_aggregate" to 0 to see all help / error messages

      iter #   2 total cpu time :     4.9 secs   av.it.:   8.8
      thresh= 3.281E-05 alpha_mix =  0.700 |ddv_scf|^2 =  1.814E-09

      iter #   3 total cpu time :     5.9 secs   av.it.:   8.8
      thresh= 4.260E-06 alpha_mix =  0.700 |ddv_scf|^2 =  2.560E-11

      iter #   4 total cpu time :     6.4 secs   av.it.:   8.2
      thresh= 5.059E-07 alpha_mix =  0.700 |ddv_scf|^2 =  1.943E-14

      iter #   5 total cpu time :     6.8 secs   av.it.:   9.2
      thresh= 1.394E-08 alpha_mix =  0.700 |ddv_scf|^2 =  1.581E-16

      iter #   6 total cpu time :     7.3 secs   av.it.:   8.7
      thresh= 1.258E-09 alpha_mix =  0.700 |ddv_scf|^2 =  1.954E-18

     End of self-consistent calculation

     Convergence has been achieved 


     Representation #   2 modes #   4   5   6

     Self-consistent Calculation

      iter #   1 total cpu time :     7.6 secs   av.it.:   5.0
      thresh= 1.000E-02 alpha_mix =  0.700 |ddv_scf|^2 =  8.073E-08

      iter #   2 total cpu time :     8.0 secs   av.it.:   9.4
      thresh= 2.841E-05 alpha_mix =  0.700 |ddv_scf|^2 =  3.412E-09

      iter #   3 total cpu time :     9.5 secs   av.it.:   9.2
      thresh= 5.841E-06 alpha_mix =  0.700 |ddv_scf|^2 =  3.469E-11

      iter #   4 total cpu time :    10.1 secs   av.it.:   9.2
      thresh= 5.890E-07 alpha_mix =  0.700 |ddv_scf|^2 =  7.895E-14

      iter #   5 total cpu time :    11.1 secs   av.it.:   9.5
      thresh= 2.810E-08 alpha_mix =  0.700 |ddv_scf|^2 =  1.154E-15

      iter #   6 total cpu time :    11.6 secs   av.it.:   9.2
      thresh= 3.397E-09 alpha_mix =  0.700 |ddv_scf|^2 =  6.649E-19

     End of self-consistent calculation

     Convergence has been achieved 

     Number of q in the star =    1
     List of q in the star:
          1   0.000000000   0.000000000   0.000000000

          Dielectric constant in cartesian axis 

          (      25.209361310      -0.000000000       0.000000000 )
          (      -0.000000000      25.209361310       0.000000000 )
          (       0.000000000       0.000000000      25.209361310 )

          Effective charges (d Force / dE) in cartesian axis

           atom      1   Si 
      Ex  (       -1.22973        0.00000        0.00000 )
      Ey  (        0.00000       -1.22973        0.00000 )
      Ez  (        0.00000       -0.00000       -1.22973 )
           atom      2   Si 
      Ex  (       -1.22973        0.00000        0.00000 )
      Ey  (        0.00000       -1.22973       -0.00000 )
      Ez  (        0.00000        0.00000       -1.22973 )

          Effective charges (d P / du) in cartesian axis 

           atom      1   Si 
      Px  (       -1.22973       -0.00000       -0.00000 )
      Py  (       -0.00000       -1.22973        0.00000 )
      Pz  (       -0.00000        0.00000       -1.22973 )
           atom      2   Si 
      Px  (       -1.22973        0.00000       -0.00000 )
      Py  (       -0.00000       -1.22973        0.00000 )
      Pz  (        0.00000        0.00000       -1.22973 )

     Diagonalizing the dynamical matrix

     q = (    0.000000000   0.000000000   0.000000000 ) 

 **************************************************************************
     freq (    1) =       0.127656 [THz] =       4.258162 [cm-1]
     freq (    2) =       0.127656 [THz] =       4.258162 [cm-1]
     freq (    3) =       0.127656 [THz] =       4.258162 [cm-1]
     freq (    4) =      15.097857 [THz] =     503.610307 [cm-1]
     freq (    5) =      15.097857 [THz] =     503.610307 [cm-1]
     freq (    6) =      15.097857 [THz] =     503.610307 [cm-1]
 **************************************************************************

     Mode symmetry, O_h (m-3m)  point group:

     freq (   1-   3) =          4.3  [cm-1]   --> T_1u G_15  G_4- I  
     freq (   4-   6) =        503.6  [cm-1]   --> T_2g G_25' G_5+ R  

     Calculation of q =   -0.2500000   0.2500000  -0.2500000

     Subspace diagonalization in iterative solution of the eigenvalue problem:
     a serial algorithm will be used


     Parallelization info
     --------------------
     sticks:   dense  smooth     PW     G-vecs:    dense   smooth      PW
     Min          87      87     30                 1070     1070     222
     Max          88      88     31                 1073     1073     225
     Sum         349     349    121                 4285     4285     893

     Using Slab Decomposition


     Title: 
     Ph                                                                         


     bravais-lattice index     =            2
     lattice parameter (alat)  =      10.3000  a.u.
     unit-cell volume          =     273.1818 (a.u.)^3
     number of atoms/cell      =            2
     number of atomic types    =            1
     number of electrons       =         8.00
     number of Kohn-Sham states=            4
     kinetic-energy cutoff     =      24.0000  Ry
     charge density cutoff     =      96.0000  Ry
     Exchange-correlation= PZ
                           (   1   1   0   0   0   0   0)

     celldm(1)=  10.300000  celldm(2)=   0.000000  celldm(3)=   0.000000
     celldm(4)=   0.000000  celldm(5)=   0.000000  celldm(6)=   0.000000

     crystal axes: (cart. coord. in units of alat)
               a(1) = (  -0.500000   0.000000   0.500000 )  
               a(2) = (   0.000000   0.500000   0.500000 )  
               a(3) = (  -0.500000   0.500000   0.000000 )  

     reciprocal axes: (cart. coord. in units 2 pi/alat)
               b(1) = ( -1.000000 -1.000000  1.000000 )  
               b(2) = (  1.000000  1.000000  1.000000 )  
               b(3) = ( -1.000000  1.000000 -1.000000 )  


     PseudoPot. # 1 for Si read from file:
     ../Si.pz-rrkj.UPF
     MD5 check sum: 884b380b739b48e9cd334294cddc9a8d
     Pseudo is Norm-conserving, Zval =  4.0
     Generated using "atomic" code by A. Dal Corso (espresso distribution)
     Using radial grid of 1141 points,  2 beta functions with: 
                l(1) =   0
                l(2) =   1

     atomic species   valence    mass     pseudopotential
        Si             4.00    28.08600     Si( 1.00)

     48 Sym. Ops., with inversion, found



   Cartesian axes

     site n.     atom                  positions (alat units)
         1           Si  tau(   1) = (   0.0000000   0.0000000   0.0000000  )
         2           Si  tau(   2) = (   0.2500000   0.2500000   0.2500000  )

     number of k points=    40
                       cart. coord. in units 2pi/alat
        k(    1) = (   0.0000000   0.0000000   0.0000000), wk =   0.0312500
        k(    2) = (  -0.2500000   0.2500000  -0.2500000), wk =   0.0000000
        k(    3) = (  -0.2500000   0.2500000  -0.2500000), wk =   0.0312500
        k(    4) = (  -0.5000000   0.5000000  -0.5000000), wk =   0.0000000
        k(    5) = (   0.5000000  -0.5000000   0.5000000), wk =   0.0312500
        k(    6) = (   0.2500000  -0.2500000   0.2500000), wk =   0.0000000
        k(    7) = (   0.0000000   0.5000000   0.0000000), wk =   0.0937500
        k(    8) = (  -0.2500000   0.7500000  -0.2500000), wk =   0.0000000
        k(    9) = (   0.7500000  -0.2500000   0.7500000), wk =   0.0937500
        k(   10) = (   0.5000000   0.0000000   0.5000000), wk =   0.0000000
        k(   11) = (   0.5000000   0.0000000   0.5000000), wk =   0.0937500
        k(   12) = (   0.2500000   0.2500000   0.2500000), wk =   0.0000000
        k(   13) = (   0.0000000  -1.0000000   0.0000000), wk =   0.0937500
        k(   14) = (  -0.2500000  -0.7500000  -0.2500000), wk =   0.0000000
        k(   15) = (  -0.5000000  -1.0000000   0.0000000), wk =   0.1875000
        k(   16) = (  -0.7500000  -0.7500000  -0.2500000), wk =   0.0000000
        k(   17) = (   0.2500000  -0.2500000  -0.2500000), wk =   0.0937500
        k(   18) = (   0.0000000   0.0000000  -0.5000000), wk =   0.0000000
        k(   19) = (   0.2500000  -0.2500000   0.2500000), wk =   0.0312500
        k(   20) = (   0.0000000   0.0000000   0.0000000), wk =   0.0000000
        k(   21) = (  -0.2500000  -0.2500000  -0.2500000), wk =   0.0937500
        k(   22) = (  -0.5000000   0.0000000  -0.5000000), wk =   0.0000000
        k(   23) = (  -0.5000000   0.5000000   0.5000000), wk =   0.0937500
        k(   24) = (  -0.7500000   0.7500000   0.2500000), wk =   0.0000000
        k(   25) = (   0.0000000   0.0000000   0.5000000), wk =   0.0937500
        k(   26) = (  -0.2500000   0.2500000   0.2500000), wk =   0.0000000
        k(   27) = (  -0.7500000   0.7500000   0.2500000), wk =   0.0937500
        k(   28) = (  -1.0000000   1.0000000   0.0000000), wk =   0.0000000
        k(   29) = (  -0.7500000   0.7500000  -0.2500000), wk =   0.0937500
        k(   30) = (  -1.0000000   1.0000000  -0.5000000), wk =   0.0000000
        k(   31) = (  -0.7500000   0.2500000   0.7500000), wk =   0.1875000
        k(   32) = (  -1.0000000   0.5000000   0.5000000), wk =   0.0000000
        k(   33) = (   0.7500000   0.2500000   0.7500000), wk =   0.0937500
        k(   34) = (   0.5000000   0.5000000   0.5000000), wk =   0.0000000
        k(   35) = (   0.7500000  -0.2500000  -0.7500000), wk =   0.1875000
        k(   36) = (   0.5000000   0.0000000  -1.0000000), wk =   0.0000000
        k(   37) = (  -0.5000000   0.5000000   0.0000000), wk =   0.0937500
        k(   38) = (  -0.7500000   0.7500000  -0.2500000), wk =   0.0000000
        k(   39) = (  -0.5000000   0.0000000   0.5000000), wk =   0.1875000
        k(   40) = (  -0.7500000   0.2500000   0.2500000), wk =   0.0000000

     Dense  grid:     4285 G-vectors     FFT dimensions: (  24,  24,  24)

     Estimated max dynamical RAM per process >       0.55 MB

     Estimated total dynamical RAM >       2.21 MB

     The potential is recalculated from file :
     ./tmp/_ph0/silicon.save/charge-density

     Starting wfcs are    8 atomic wfcs

     Band Structure Calculation
     Davidson diagonalization with overlap

     ethr =  1.25E-10,  avg # of iterations =  9.8

     total cpu time spent up to now is        0.7 secs

     End of band structure calculation

          k = 0.0000 0.0000 0.0000 (   537 PWs)   bands (ev):

    -5.9335   5.9572   5.9572   5.9572

          k =-0.2500 0.2500-0.2500 (   543 PWs)   bands (ev):

    -5.1406   2.0298   5.2052   5.2052

          k =-0.2500 0.2500-0.2500 (   543 PWs)   bands (ev):

    -5.1406   2.0298   5.2052   5.2052

          k =-0.5000 0.5000-0.5000 (   544 PWs)   bands (ev):

    -3.6208  -0.9891   4.7711   4.7711

          k = 0.5000-0.5000 0.5000 (   544 PWs)   bands (ev):

    -3.6208  -0.9891   4.7711   4.7711

          k = 0.2500-0.2500 0.2500 (   543 PWs)   bands (ev):

    -5.1406   2.0298   5.2052   5.2052

          k = 0.0000 0.5000 0.0000 (   560 PWs)   bands (ev):

    -4.8612   2.4230   4.0846   4.0846

          k =-0.2500 0.7500-0.2500 (   542 PWs)   bands (ev):

    -3.2392  -0.4077   2.4324   3.7730

          k = 0.7500-0.2500 0.7500 (   542 PWs)   bands (ev):

    -3.2392  -0.4077   2.4324   3.7730

          k = 0.5000 0.0000 0.5000 (   540 PWs)   bands (ev):

    -3.9073   0.4858   2.2164   4.6429

          k = 0.5000 0.0000 0.5000 (   540 PWs)   bands (ev):

    -3.9073   0.4858   2.2164   4.6429

          k = 0.2500 0.2500 0.2500 (   543 PWs)   bands (ev):

    -5.1406   2.0298   5.2052   5.2052

          k = 0.0000-1.0000 0.0000 (   524 PWs)   bands (ev):

    -1.8277  -1.8277   3.1310   3.1310

          k =-0.2500-0.7500-0.2500 (   542 PWs)   bands (ev):

    -3.2392  -0.4077   2.4324   3.7730

          k =-0.5000-1.0000 0.0000 (   524 PWs)   bands (ev):

    -1.6649  -1.6649   2.1212   2.1212

          k =-0.7500-0.7500-0.2500 (   542 PWs)   bands (ev):

    -3.2392  -0.4077   2.4324   3.7730

          k = 0.2500-0.2500-0.2500 (   543 PWs)   bands (ev):

    -5.1406   2.0298   5.2052   5.2052

          k = 0.0000 0.0000-0.5000 (   560 PWs)   bands (ev):

    -4.8612   2.4230   4.0846   4.0846

          k = 0.2500-0.2500 0.2500 (   543 PWs)   bands (ev):

    -5.1406   2.0298   5.2052   5.2052

          k = 0.0000 0.0000 0.0000 (   537 PWs)   bands (ev):

    -5.9335   5.9572   5.9572   5.9572

          k =-0.2500-0.2500-0.2500 (   543 PWs)   bands (ev):

    -5.1406   2.0298   5.2052   5.2052

          k =-0.5000 0.0000-0.5000 (   540 PWs)   bands (ev):

    -3.9073   0.4858   2.2164   4.6429

          k =-0.5000 0.5000 0.5000 (   544 PWs)   bands (ev):

    -3.6208  -0.9891   4.7711   4.7711

          k =-0.7500 0.7500 0.2500 (   542 PWs)   bands (ev):

    -3.2392  -0.4077   2.4324   3.7730

          k = 0.0000 0.0000 0.5000 (   560 PWs)   bands (ev):

    -4.8612   2.4230   4.0846   4.0846

          k =-0.2500 0.2500 0.2500 (   543 PWs)   bands (ev):

    -5.1406   2.0298   5.2052   5.2052

          k =-0.7500 0.7500 0.2500 (   542 PWs)   bands (ev):

    -3.2392  -0.4077   2.4324   3.7730

          k =-1.0000 1.0000 0.0000 (   524 PWs)   bands (ev):

    -1.8277  -1.8277   3.1310   3.1310

          k =-0.7500 0.7500-0.2500 (   542 PWs)   bands (ev):

    -3.2392  -0.4077   2.4324   3.7730

          k =-1.0000 1.0000-0.5000 (   560 PWs)   bands (ev):

    -4.8612   2.4230   4.0846   4.0846

          k =-0.7500 0.2500 0.7500 (   542 PWs)   bands (ev):

    -3.2392  -0.4077   2.4324   3.7730

          k =-1.0000 0.5000 0.5000 (   540 PWs)   bands (ev):

    -3.9073   0.4858   2.2164   4.6429

          k = 0.7500 0.2500 0.7500 (   542 PWs)   bands (ev):

    -3.2392  -0.4077   2.4324   3.7730

          k = 0.5000 0.5000 0.5000 (   544 PWs)   bands (ev):

    -3.6208  -0.9891   4.7711   4.7711

          k = 0.7500-0.2500-0.7500 (   542 PWs)   bands (ev):

    -3.2392  -0.4077   2.4324   3.7730

          k = 0.5000 0.0000-1.0000 (   524 PWs)   bands (ev):

    -1.6649  -1.6649   2.1212   2.1212

          k =-0.5000 0.5000 0.0000 (   540 PWs)   bands (ev):

    -3.9073   0.4858   2.2164   4.6429

          k =-0.7500 0.7500-0.2500 (   542 PWs)   bands (ev):

    -3.2392  -0.4077   2.4324   3.7730

          k =-0.5000 0.0000 0.5000 (   540 PWs)   bands (ev):

    -3.9073   0.4858   2.2164   4.6429

          k =-0.7500 0.2500 0.2500 (   542 PWs)   bands (ev):

    -3.2392  -0.4077   2.4324   3.7730

     highest occupied level (ev):     5.9572

     Writing output data file ./tmp/_ph0/silicon.save/

     Ph                                                                         

     bravais-lattice index     =            2
     lattice parameter (alat)  =      10.3000  a.u.
     unit-cell volume          =     273.1818 (a.u.)^3
     number of atoms/cell      =            2
     number of atomic types    =            1
     kinetic-energy cut-off    =      24.0000  Ry
     charge density cut-off    =      96.0000  Ry
     convergence threshold     =      1.0E-16
     beta                      =       0.7000
     number of iterations used =            4
     Exchange-correlation= PZ
                           (   1   1   0   0   0   0   0)


     celldm(1)=   10.30000  celldm(2)=    0.00000  celldm(3)=    0.00000
     celldm(4)=    0.00000  celldm(5)=    0.00000  celldm(6)=    0.00000

     crystal axes: (cart. coord. in units of alat)
               a(1) = ( -0.5000  0.0000  0.5000 )  
               a(2) = (  0.0000  0.5000  0.5000 )  
               a(3) = ( -0.5000  0.5000  0.0000 )  

     reciprocal axes: (cart. coord. in units 2 pi/alat)
               b(1) = ( -1.0000 -1.0000  1.0000 )  
               b(2) = (  1.0000  1.0000  1.0000 )  
               b(3) = ( -1.0000  1.0000 -1.0000 )  


     Atoms inside the unit cell: 

     Cartesian axes

     site n.  atom      mass           positions (alat units)
        1     Si  28.0860   tau(    1) = (    0.00000    0.00000    0.00000  )
        2     Si  28.0860   tau(    2) = (    0.25000    0.25000    0.25000  )

     Computing dynamical matrix for 
                    q = (  -0.2500000   0.2500000  -0.2500000 )

      6 Sym.Ops. (no q -> -q+G )


     G cutoff =  257.9799  (   1073 G-vectors)     FFT grid: ( 24, 24, 24)
     number of k points=    40

     PseudoPot. # 1 for Si read from file:
     ../Si.pz-rrkj.UPF
     MD5 check sum: 884b380b739b48e9cd334294cddc9a8d
     Pseudo is Norm-conserving, Zval =  4.0
     Generated using "atomic" code by A. Dal Corso (espresso distribution)
     Using radial grid of 1141 points,  2 beta functions with: 
                l(1) =   0
                l(2) =   1

     Mode symmetry, C_3v (3m)   point group:


     Atomic displacements:
     There are    4 irreducible representations

     Representation     1      1 modes -  To be done

     Representation     2      1 modes -  To be done

     Representation     3      2 modes -  To be done

     Representation     4      2 modes -  To be done



     Alpha used in Ewald sum =   1.0000
     PHONON       :      8.85s CPU     12.40s WALL



     Representation #   1 mode #   1

     Self-consistent Calculation

      iter #   1 total cpu time :    12.7 secs   av.it.:   5.9
      thresh= 1.000E-02 alpha_mix =  0.700 |ddv_scf|^2 =  1.413E-03

      iter #   2 total cpu time :    13.0 secs   av.it.:   7.7
      thresh= 3.760E-03 alpha_mix =  0.700 |ddv_scf|^2 =  2.047E-02

      iter #   3 total cpu time :    13.2 secs   av.it.:   6.6
      thresh= 1.000E-02 alpha_mix =  0.700 |ddv_scf|^2 =  1.036E-06

      iter #   4 total cpu time :    13.5 secs   av.it.:   8.0
      thresh= 1.018E-04 alpha_mix =  0.700 |ddv_scf|^2 =  9.371E-08

      iter #   5 total cpu time :    14.1 secs   av.it.:   7.7
      thresh= 3.061E-05 alpha_mix =  0.700 |ddv_scf|^2 =  4.938E-10

      iter #   6 total cpu time :    14.8 secs   av.it.:   7.9
      thresh= 2.222E-06 alpha_mix =  0.700 |ddv_scf|^2 =  1.039E-10

      iter #   7 total cpu time :    15.1 secs   av.it.:   7.2
      thresh= 1.019E-06 alpha_mix =  0.700 |ddv_scf|^2 =  1.512E-10

      iter #   8 total cpu time :    15.4 secs   av.it.:   6.8
      thresh= 1.230E-06 alpha_mix =  0.700 |ddv_scf|^2 =  3.916E-13

      iter #   9 total cpu time :    15.7 secs   av.it.:   6.9
      thresh= 6.258E-08 alpha_mix =  0.700 |ddv_scf|^2 =  6.148E-15

      iter #  10 total cpu time :    16.0 secs   av.it.:   8.2
      thresh= 7.841E-09 alpha_mix =  0.700 |ddv_scf|^2 =  5.782E-15

      iter #  11 total cpu time :    16.3 secs   av.it.:   7.3
      thresh= 7.604E-09 alpha_mix =  0.700 |ddv_scf|^2 =  6.298E-17

     End of self-consistent calculation

     Convergence has been achieved 


     Representation #   2 mode #   2

     Self-consistent Calculation

      iter #   1 total cpu time :    16.6 secs   av.it.:   5.9
      thresh= 1.000E-02 alpha_mix =  0.700 |ddv_scf|^2 =  1.413E-03

      iter #   2 total cpu time :    16.9 secs   av.it.:   7.7
      thresh= 3.759E-03 alpha_mix =  0.700 |ddv_scf|^2 =  2.047E-02

      iter #   3 total cpu time :    17.2 secs   av.it.:   6.6
      thresh= 1.000E-02 alpha_mix =  0.700 |ddv_scf|^2 =  1.034E-06

      iter #   4 total cpu time :    17.6 secs   av.it.:   8.0
      thresh= 1.017E-04 alpha_mix =  0.700 |ddv_scf|^2 =  9.383E-08

      iter #   5 total cpu time :    17.9 secs   av.it.:   7.7
      thresh= 3.063E-05 alpha_mix =  0.700 |ddv_scf|^2 =  5.271E-10

      iter #   6 total cpu time :    18.2 secs   av.it.:   7.8
      thresh= 2.296E-06 alpha_mix =  0.700 |ddv_scf|^2 =  2.590E-10

      iter #   7 total cpu time :    18.5 secs   av.it.:   6.8
      thresh= 1.609E-06 alpha_mix =  0.700 |ddv_scf|^2 =  8.642E-11

      iter #   8 total cpu time :    18.9 secs   av.it.:   7.3
      thresh= 9.296E-07 alpha_mix =  0.700 |ddv_scf|^2 =  3.869E-13

      iter #   9 total cpu time :    19.9 secs   av.it.:   6.9
      thresh= 6.220E-08 alpha_mix =  0.700 |ddv_scf|^2 =  6.126E-15

      iter #  10 total cpu time :    20.2 secs   av.it.:   8.2
      thresh= 7.827E-09 alpha_mix =  0.700 |ddv_scf|^2 =  6.048E-15

      iter #  11 total cpu time :    20.5 secs   av.it.:   7.3
      thresh= 7.777E-09 alpha_mix =  0.700 |ddv_scf|^2 =  5.761E-17

     End of self-consistent calculation

     Convergence has been achieved 


     Representation #   3 modes #   3   4

     Self-consistent Calculation

      iter #   1 total cpu time :    21.1 secs   av.it.:   5.3
      thresh= 1.000E-02 alpha_mix =  0.700 |ddv_scf|^2 =  3.026E-07

      iter #   2 total cpu time :    21.9 secs   av.it.:   9.6
      thresh= 5.501E-05 alpha_mix =  0.700 |ddv_scf|^2 =  1.810E-08

      iter #   3 total cpu time :    22.8 secs   av.it.:   9.3
      thresh= 1.345E-05 alpha_mix =  0.700 |ddv_scf|^2 =  9.875E-11

      iter #   4 total cpu time :    23.5 secs   av.it.:   9.3
      thresh= 9.937E-07 alpha_mix =  0.700 |ddv_scf|^2 =  6.037E-12

      iter #   5 total cpu time :    24.2 secs   av.it.:   9.2
      thresh= 2.457E-07 alpha_mix =  0.700 |ddv_scf|^2 =  1.158E-14

      iter #   6 total cpu time :    25.0 secs   av.it.:   9.6
      thresh= 1.076E-08 alpha_mix =  0.700 |ddv_scf|^2 =  1.790E-16

      iter #   7 total cpu time :    25.6 secs   av.it.:   9.8
      thresh= 1.338E-09 alpha_mix =  0.700 |ddv_scf|^2 =  1.118E-18

     End of self-consistent calculation

     Convergence has been achieved 


     Representation #   4 modes #   5   6

     Self-consistent Calculation

      iter #   1 total cpu time :    26.2 secs   av.it.:   5.2
      thresh= 1.000E-02 alpha_mix =  0.700 |ddv_scf|^2 =  3.027E-07

      iter #   2 total cpu time :    26.9 secs   av.it.:   9.6
      thresh= 5.502E-05 alpha_mix =  0.700 |ddv_scf|^2 =  1.813E-08

      iter #   3 total cpu time :    27.6 secs   av.it.:   9.3
      thresh= 1.346E-05 alpha_mix =  0.700 |ddv_scf|^2 =  9.864E-11

      iter #   4 total cpu time :    28.2 secs   av.it.:   9.3
      thresh= 9.932E-07 alpha_mix =  0.700 |ddv_scf|^2 =  6.046E-12

      iter #   5 total cpu time :    28.8 secs   av.it.:   9.2
      thresh= 2.459E-07 alpha_mix =  0.700 |ddv_scf|^2 =  1.127E-14

      iter #   6 total cpu time :    29.4 secs   av.it.:   9.5
      thresh= 1.061E-08 alpha_mix =  0.700 |ddv_scf|^2 =  1.798E-16

      iter #   7 total cpu time :    30.1 secs   av.it.:   9.7
      thresh= 1.341E-09 alpha_mix =  0.700 |ddv_scf|^2 =  1.034E-18

     End of self-consistent calculation

     Convergence has been achieved 

     Number of q in the star =    8
     List of q in the star:
          1  -0.250000000   0.250000000  -0.250000000
          2   0.250000000  -0.250000000  -0.250000000
          3   0.250000000  -0.250000000   0.250000000
          4   0.250000000   0.250000000   0.250000000
          5  -0.250000000  -0.250000000  -0.250000000
          6  -0.250000000  -0.250000000   0.250000000
          7  -0.250000000   0.250000000   0.250000000
          8   0.250000000   0.250000000  -0.250000000

     Diagonalizing the dynamical matrix

     q = (   -0.250000000   0.250000000  -0.250000000 ) 

 **************************************************************************
     freq (    1) =       2.840458 [THz] =      94.747488 [cm-1]
     freq (    2) =       2.840458 [THz] =      94.747488 [cm-1]
     freq (    3) =       6.644941 [THz] =     221.651375 [cm-1]
     freq (    4) =      14.248566 [THz] =     475.281019 [cm-1]
     freq (    5) =      14.401205 [THz] =     480.372479 [cm-1]
     freq (    6) =      14.401205 [THz] =     480.372479 [cm-1]
 **************************************************************************

     Mode symmetry, C_3v (3m)   point group:

     freq (   1-   2) =         94.7  [cm-1]   --> E    L_3           
     freq (   3-   3) =        221.7  [cm-1]   --> A_1  L_1           
     freq (   4-   4) =        475.3  [cm-1]   --> A_1  L_1           
     freq (   5-   6) =        480.4  [cm-1]   --> E    L_3           

     Calculation of q =    0.5000000  -0.5000000   0.5000000

     Parallelization info
     --------------------
     sticks:   dense  smooth     PW     G-vecs:    dense   smooth      PW
     Min          87      87     34                 1070     1070     259
     Max          88      88     35                 1073     1073     260
     Sum         349     349    139                 4285     4285    1037

     Using Slab Decomposition


     Title: 
     Ph                                                                         


     bravais-lattice index     =            2
     lattice parameter (alat)  =      10.3000  a.u.
     unit-cell volume          =     273.1818 (a.u.)^3
     number of atoms/cell      =            2
     number of atomic types    =            1
     number of electrons       =         8.00
     number of Kohn-Sham states=            4
     kinetic-energy cutoff     =      24.0000  Ry
     charge density cutoff     =      96.0000  Ry
     Exchange-correlation= PZ
                           (   1   1   0   0   0   0   0)

     celldm(1)=  10.300000  celldm(2)=   0.000000  celldm(3)=   0.000000
     celldm(4)=   0.000000  celldm(5)=   0.000000  celldm(6)=   0.000000

     crystal axes: (cart. coord. in units of alat)
               a(1) = (  -0.500000   0.000000   0.500000 )  
               a(2) = (   0.000000   0.500000   0.500000 )  
               a(3) = (  -0.500000   0.500000   0.000000 )  

     reciprocal axes: (cart. coord. in units 2 pi/alat)
               b(1) = ( -1.000000 -1.000000  1.000000 )  
               b(2) = (  1.000000  1.000000  1.000000 )  
               b(3) = ( -1.000000  1.000000 -1.000000 )  


     PseudoPot. # 1 for Si read from file:
     ../Si.pz-rrkj.UPF
     MD5 check sum: 884b380b739b48e9cd334294cddc9a8d
     Pseudo is Norm-conserving, Zval =  4.0
     Generated using "atomic" code by A. Dal Corso (espresso distribution)
     Using radial grid of 1141 points,  2 beta functions with: 
                l(1) =   0
                l(2) =   1

     atomic species   valence    mass     pseudopotential
        Si             4.00    28.08600     Si( 1.00)

     48 Sym. Ops., with inversion, found



   Cartesian axes

     site n.     atom                  positions (alat units)
         1           Si  tau(   1) = (   0.0000000   0.0000000   0.0000000  )
         2           Si  tau(   2) = (   0.2500000   0.2500000   0.2500000  )

     number of k points=    26
                       cart. coord. in units 2pi/alat
        k(    1) = (   0.0000000   0.0000000   0.0000000), wk =   0.0312500
        k(    2) = (   0.5000000  -0.5000000   0.5000000), wk =   0.0000000
        k(    3) = (  -0.2500000   0.2500000  -0.2500000), wk =   0.0625000
        k(    4) = (   0.2500000  -0.2500000   0.2500000), wk =   0.0000000
        k(    5) = (   0.5000000  -0.5000000   0.5000000), wk =   0.0312500
        k(    6) = (   1.0000000  -1.0000000   1.0000000), wk =   0.0000000
        k(    7) = (   0.0000000   0.5000000   0.0000000), wk =   0.1875000
        k(    8) = (   0.5000000   0.0000000   0.5000000), wk =   0.0000000
        k(    9) = (   0.7500000  -0.2500000   0.7500000), wk =   0.1875000
        k(   10) = (   1.2500000  -0.7500000   1.2500000), wk =   0.0000000
        k(   11) = (   0.5000000   0.0000000   0.5000000), wk =   0.1875000
        k(   12) = (   1.0000000  -0.5000000   1.0000000), wk =   0.0000000
        k(   13) = (   0.0000000  -1.0000000   0.0000000), wk =   0.0937500
        k(   14) = (   0.5000000  -1.5000000   0.5000000), wk =   0.0000000
        k(   15) = (  -0.5000000  -1.0000000   0.0000000), wk =   0.1875000
        k(   16) = (   0.0000000  -1.5000000   0.5000000), wk =   0.0000000
        k(   17) = (  -0.2500000  -0.2500000  -0.2500000), wk =   0.1875000
        k(   18) = (   0.2500000  -0.7500000   0.2500000), wk =   0.0000000
        k(   19) = (   0.5000000   0.5000000   0.5000000), wk =   0.0937500
        k(   20) = (   1.0000000   0.0000000   1.0000000), wk =   0.0000000
        k(   21) = (   0.7500000   0.2500000   0.7500000), wk =   0.1875000
        k(   22) = (   1.2500000  -0.2500000   1.2500000), wk =   0.0000000
        k(   23) = (  -0.7500000   0.2500000   0.7500000), wk =   0.3750000
        k(   24) = (  -0.2500000  -0.2500000   1.2500000), wk =   0.0000000
        k(   25) = (  -0.5000000   0.0000000   0.5000000), wk =   0.1875000
        k(   26) = (   0.0000000  -0.5000000   1.0000000), wk =   0.0000000

     Dense  grid:     4285 G-vectors     FFT dimensions: (  24,  24,  24)

     Estimated max dynamical RAM per process >       0.55 MB

     Estimated total dynamical RAM >       2.21 MB

     The potential is recalculated from file :
     ./tmp/_ph0/silicon.save/charge-density

     Starting wfcs are    8 atomic wfcs

     Band Structure Calculation
     Davidson diagonalization with overlap

     ethr =  1.25E-10,  avg # of iterations =  9.5

     total cpu time spent up to now is        1.2 secs

     End of band structure calculation

          k = 0.0000 0.0000 0.0000 (   537 PWs)   bands (ev):

    -5.9335   5.9572   5.9572   5.9572

          k = 0.5000-0.5000 0.5000 (   544 PWs)   bands (ev):

    -3.6208  -0.9891   4.7711   4.7711

          k =-0.2500 0.2500-0.2500 (   543 PWs)   bands (ev):

    -5.1406   2.0298   5.2052   5.2052

          k = 0.2500-0.2500 0.2500 (   543 PWs)   bands (ev):

    -5.1406   2.0298   5.2052   5.2052

          k = 0.5000-0.5000 0.5000 (   544 PWs)   bands (ev):

    -3.6208  -0.9891   4.7711   4.7711

          k = 1.0000-1.0000 1.0000 (   537 PWs)   bands (ev):

    -5.9335   5.9572   5.9572   5.9572

          k = 0.0000 0.5000 0.0000 (   560 PWs)   bands (ev):

    -4.8612   2.4230   4.0846   4.0846

          k = 0.5000 0.0000 0.5000 (   540 PWs)   bands (ev):

    -3.9073   0.4858   2.2164   4.6429

          k = 0.7500-0.2500 0.7500 (   542 PWs)   bands (ev):

    -3.2392  -0.4077   2.4324   3.7730

          k = 1.2500-0.7500 1.2500 (   543 PWs)   bands (ev):

    -5.1406   2.0298   5.2052   5.2052

          k = 0.5000 0.0000 0.5000 (   540 PWs)   bands (ev):

    -3.9073   0.4858   2.2164   4.6429

          k = 1.0000-0.5000 1.0000 (   560 PWs)   bands (ev):

    -4.8612   2.4230   4.0846   4.0846

          k = 0.0000-1.0000 0.0000 (   524 PWs)   bands (ev):

    -1.8277  -1.8277   3.1310   3.1310

          k = 0.5000-1.5000 0.5000 (   544 PWs)   bands (ev):

    -3.6208  -0.9891   4.7711   4.7711

          k =-0.5000-1.0000 0.0000 (   524 PWs)   bands (ev):

    -1.6649  -1.6649   2.1212   2.1212

          k = 0.0000-1.5000 0.5000 (   540 PWs)   bands (ev):

    -3.9073   0.4858   2.2164   4.6429

          k =-0.2500-0.2500-0.2500 (   543 PWs)   bands (ev):

    -5.1406   2.0298   5.2052   5.2052

          k = 0.2500-0.7500 0.2500 (   542 PWs)   bands (ev):

    -3.2392  -0.4077   2.4324   3.7730

          k = 0.5000 0.5000 0.5000 (   544 PWs)   bands (ev):

    -3.6208  -0.9891   4.7711   4.7711

          k = 1.0000 0.0000 1.0000 (   524 PWs)   bands (ev):

    -1.8277  -1.8277   3.1310   3.1310

          k = 0.7500 0.2500 0.7500 (   542 PWs)   bands (ev):

    -3.2392  -0.4077   2.4324   3.7730

          k = 1.2500-0.2500 1.2500 (   542 PWs)   bands (ev):

    -3.2392  -0.4077   2.4324   3.7730

          k =-0.7500 0.2500 0.7500 (   542 PWs)   bands (ev):

    -3.2392  -0.4077   2.4324   3.7730

          k =-0.2500-0.2500 1.2500 (   542 PWs)   bands (ev):

    -3.2392  -0.4077   2.4324   3.7730

          k =-0.5000 0.0000 0.5000 (   540 PWs)   bands (ev):

    -3.9073   0.4858   2.2164   4.6429

          k = 0.0000-0.5000 1.0000 (   524 PWs)   bands (ev):

    -1.6649  -1.6649   2.1212   2.1212

     highest occupied level (ev):     5.9572

     Writing output data file ./tmp/_ph0/silicon.save/

     Ph                                                                         

     bravais-lattice index     =            2
     lattice parameter (alat)  =      10.3000  a.u.
     unit-cell volume          =     273.1818 (a.u.)^3
     number of atoms/cell      =            2
     number of atomic types    =            1
     kinetic-energy cut-off    =      24.0000  Ry
     charge density cut-off    =      96.0000  Ry
     convergence threshold     =      1.0E-16
     beta                      =       0.7000
     number of iterations used =            4
     Exchange-correlation= PZ
                           (   1   1   0   0   0   0   0)


     celldm(1)=   10.30000  celldm(2)=    0.00000  celldm(3)=    0.00000
     celldm(4)=    0.00000  celldm(5)=    0.00000  celldm(6)=    0.00000

     crystal axes: (cart. coord. in units of alat)
               a(1) = ( -0.5000  0.0000  0.5000 )  
               a(2) = (  0.0000  0.5000  0.5000 )  
               a(3) = ( -0.5000  0.5000  0.0000 )  

     reciprocal axes: (cart. coord. in units 2 pi/alat)
               b(1) = ( -1.0000 -1.0000  1.0000 )  
               b(2) = (  1.0000  1.0000  1.0000 )  
               b(3) = ( -1.0000  1.0000 -1.0000 )  


     Atoms inside the unit cell: 

     Cartesian axes

     site n.  atom      mass           positions (alat units)
        1     Si  28.0860   tau(    1) = (    0.00000    0.00000    0.00000  )
        2     Si  28.0860   tau(    2) = (    0.25000    0.25000    0.25000  )

     Computing dynamical matrix for 
                    q = (   0.5000000  -0.5000000   0.5000000 )

     13 Sym.Ops. (with q -> -q+G )


     G cutoff =  257.9799  (   1073 G-vectors)     FFT grid: ( 24, 24, 24)
     number of k points=    26

     PseudoPot. # 1 for Si read from file:
     ../Si.pz-rrkj.UPF
     MD5 check sum: 884b380b739b48e9cd334294cddc9a8d
     Pseudo is Norm-conserving, Zval =  4.0
     Generated using "atomic" code by A. Dal Corso (espresso distribution)
     Using radial grid of 1141 points,  2 beta functions with: 
                l(1) =   0
                l(2) =   1


     Atomic displacements:
     There are    4 irreducible representations

     Representation     1      1 modes -  To be done

     Representation     2      1 modes -  To be done

     Representation     3      2 modes -  To be done

     Representation     4      2 modes -  To be done



     Alpha used in Ewald sum =   1.0000
     PHONON       :     23.08s CPU     30.66s WALL



     Representation #   1 mode #   1

     Self-consistent Calculation

      iter #   1 total cpu time :    30.9 secs   av.it.:   4.8
      thresh= 1.000E-02 alpha_mix =  0.700 |ddv_scf|^2 =  1.291E-05

      iter #   2 total cpu time :    31.1 secs   av.it.:   7.6
      thresh= 3.593E-04 alpha_mix =  0.700 |ddv_scf|^2 =  1.056E-05

      iter #   3 total cpu time :    31.3 secs   av.it.:   7.1
      thresh= 3.250E-04 alpha_mix =  0.700 |ddv_scf|^2 =  1.669E-09

      iter #   4 total cpu time :    31.5 secs   av.it.:   7.3
      thresh= 4.086E-06 alpha_mix =  0.700 |ddv_scf|^2 =  2.492E-11

      iter #   5 total cpu time :    31.7 secs   av.it.:   7.2
      thresh= 4.992E-07 alpha_mix =  0.700 |ddv_scf|^2 =  1.638E-13

      iter #   6 total cpu time :    31.9 secs   av.it.:   7.3
      thresh= 4.047E-08 alpha_mix =  0.700 |ddv_scf|^2 =  2.438E-15

      iter #   7 total cpu time :    32.1 secs   av.it.:   7.5
      thresh= 4.938E-09 alpha_mix =  0.700 |ddv_scf|^2 =  8.500E-18

     End of self-consistent calculation

     Convergence has been achieved 


     Representation #   2 mode #   2

     Self-consistent Calculation

      iter #   1 total cpu time :    32.3 secs   av.it.:   5.9
      thresh= 1.000E-02 alpha_mix =  0.700 |ddv_scf|^2 =  2.331E-04

      iter #   2 total cpu time :    32.5 secs   av.it.:   8.0
      thresh= 1.527E-03 alpha_mix =  0.700 |ddv_scf|^2 =  7.992E-04

      iter #   3 total cpu time :    32.7 secs   av.it.:   7.0
      thresh= 2.827E-03 alpha_mix =  0.700 |ddv_scf|^2 =  2.442E-08

      iter #   4 total cpu time :    33.0 secs   av.it.:   8.4
      thresh= 1.563E-05 alpha_mix =  0.700 |ddv_scf|^2 =  7.381E-10

      iter #   5 total cpu time :    33.2 secs   av.it.:   8.3
      thresh= 2.717E-06 alpha_mix =  0.700 |ddv_scf|^2 =  5.242E-11

      iter #   6 total cpu time :    33.4 secs   av.it.:   7.5
      thresh= 7.240E-07 alpha_mix =  0.700 |ddv_scf|^2 =  3.947E-14

      iter #   7 total cpu time :    33.6 secs   av.it.:   7.5
      thresh= 1.987E-08 alpha_mix =  0.700 |ddv_scf|^2 =  3.033E-15

      iter #   8 total cpu time :    33.8 secs   av.it.:   7.6
      thresh= 5.507E-09 alpha_mix =  0.700 |ddv_scf|^2 =  6.887E-17

     End of self-consistent calculation

     Convergence has been achieved 


     Representation #   3 modes #   3   4

     Self-consistent Calculation

      iter #   1 total cpu time :    34.1 secs   av.it.:   5.0
      thresh= 1.000E-02 alpha_mix =  0.700 |ddv_scf|^2 =  6.839E-07

      iter #   2 total cpu time :    34.6 secs   av.it.:   8.9
      thresh= 8.270E-05 alpha_mix =  0.700 |ddv_scf|^2 =  6.286E-08

      iter #   3 total cpu time :    35.1 secs   av.it.:   8.8
      thresh= 2.507E-05 alpha_mix =  0.700 |ddv_scf|^2 =  8.855E-11

      iter #   4 total cpu time :    35.7 secs   av.it.:   8.4
      thresh= 9.410E-07 alpha_mix =  0.700 |ddv_scf|^2 =  2.829E-13

      iter #   5 total cpu time :    36.4 secs   av.it.:   8.7
      thresh= 5.319E-08 alpha_mix =  0.700 |ddv_scf|^2 =  1.026E-15

      iter #   6 total cpu time :    37.2 secs   av.it.:   8.9
      thresh= 3.203E-09 alpha_mix =  0.700 |ddv_scf|^2 =  2.171E-17

     End of self-consistent calculation

     Convergence has been achieved 


     Representation #   4 modes #   5   6

     Self-consistent Calculation

      iter #   1 total cpu time :    37.5 secs   av.it.:   4.8
      thresh= 1.000E-02 alpha_mix =  0.700 |ddv_scf|^2 =  8.172E-08

      iter #   2 total cpu time :    38.0 secs   av.it.:   9.2
      thresh= 2.859E-05 alpha_mix =  0.700 |ddv_scf|^2 =  1.953E-09

      iter #   3 total cpu time :    39.0 secs   av.it.:   8.9
      thresh= 4.419E-06 alpha_mix =  0.700 |ddv_scf|^2 =  6.316E-11

      iter #   4 total cpu time :    39.6 secs   av.it.:   8.9
      thresh= 7.947E-07 alpha_mix =  0.700 |ddv_scf|^2 =  9.672E-14

      iter #   5 total cpu time :    40.3 secs   av.it.:   9.2
      thresh= 3.110E-08 alpha_mix =  0.700 |ddv_scf|^2 =  1.148E-15

      iter #   6 total cpu time :    40.9 secs   av.it.:   9.2
      thresh= 3.388E-09 alpha_mix =  0.700 |ddv_scf|^2 =  6.081E-18

     End of self-consistent calculation

     Convergence has been achieved 

     Number of q in the star =    4
     List of q in the star:
          1   0.500000000  -0.500000000   0.500000000
          2   0.500000000   0.500000000   0.500000000
          3  -0.500000000   0.500000000   0.500000000
          4   0.500000000   0.500000000  -0.500000000

     Diagonalizing the dynamical matrix

     q = (    0.500000000  -0.500000000   0.500000000 ) 

 **************************************************************************
     freq (    1) =       3.243047 [THz] =     108.176412 [cm-1]
     freq (    2) =       3.243047 [THz] =     108.176412 [cm-1]
     freq (    3) =      11.320991 [THz] =     377.627613 [cm-1]
     freq (    4) =      11.448709 [THz] =     381.887835 [cm-1]
     freq (    5) =      14.040435 [THz] =     468.338484 [cm-1]
     freq (    6) =      14.040435 [THz] =     468.338484 [cm-1]
 **************************************************************************

     Calculation of q =    0.0000000   0.5000000   0.0000000

     Parallelization info
     --------------------
     sticks:   dense  smooth     PW     G-vecs:    dense   smooth      PW
     Min          87      87     30                 1070     1070     222
     Max          88      88     31                 1073     1073     225
     Sum         349     349    121                 4285     4285     893

     Using Slab Decomposition


     Title: 
     Ph                                                                         


     bravais-lattice index     =            2
     lattice parameter (alat)  =      10.3000  a.u.
     unit-cell volume          =     273.1818 (a.u.)^3
     number of atoms/cell      =            2
     number of atomic types    =            1
     number of electrons       =         8.00
     number of Kohn-Sham states=            4
     kinetic-energy cutoff     =      24.0000  Ry
     charge density cutoff     =      96.0000  Ry
     Exchange-correlation= PZ
                           (   1   1   0   0   0   0   0)

     celldm(1)=  10.300000  celldm(2)=   0.000000  celldm(3)=   0.000000
     celldm(4)=   0.000000  celldm(5)=   0.000000  celldm(6)=   0.000000

     crystal axes: (cart. coord. in units of alat)
               a(1) = (  -0.500000   0.000000   0.500000 )  
               a(2) = (   0.000000   0.500000   0.500000 )  
               a(3) = (  -0.500000   0.500000   0.000000 )  

     reciprocal axes: (cart. coord. in units 2 pi/alat)
               b(1) = ( -1.000000 -1.000000  1.000000 )  
               b(2) = (  1.000000  1.000000  1.000000 )  
               b(3) = ( -1.000000  1.000000 -1.000000 )  


     PseudoPot. # 1 for Si read from file:
     ../Si.pz-rrkj.UPF
     MD5 check sum: 884b380b739b48e9cd334294cddc9a8d
     Pseudo is Norm-conserving, Zval =  4.0
     Generated using "atomic" code by A. Dal Corso (espresso distribution)
     Using radial grid of 1141 points,  2 beta functions with: 
                l(1) =   0
                l(2) =   1

     atomic species   valence    mass     pseudopotential
        Si             4.00    28.08600     Si( 1.00)

     48 Sym. Ops., with inversion, found



   Cartesian axes

     site n.     atom                  positions (alat units)
         1           Si  tau(   1) = (   0.0000000   0.0000000   0.0000000  )
         2           Si  tau(   2) = (   0.2500000   0.2500000   0.2500000  )

     number of k points=    36
                       cart. coord. in units 2pi/alat
        k(    1) = (   0.0000000   0.0000000   0.0000000), wk =   0.0312500
        k(    2) = (   0.0000000   0.5000000   0.0000000), wk =   0.0000000
        k(    3) = (  -0.2500000   0.2500000  -0.2500000), wk =   0.1250000
        k(    4) = (  -0.2500000   0.7500000  -0.2500000), wk =   0.0000000
        k(    5) = (   0.5000000  -0.5000000   0.5000000), wk =   0.1250000
        k(    6) = (   0.5000000   0.0000000   0.5000000), wk =   0.0000000
        k(    7) = (   0.0000000   0.5000000   0.0000000), wk =   0.0312500
        k(    8) = (   0.0000000   1.0000000   0.0000000), wk =   0.0000000
        k(    9) = (   0.7500000  -0.2500000   0.7500000), wk =   0.1250000
        k(   10) = (   0.7500000   0.2500000   0.7500000), wk =   0.0000000
        k(   11) = (   0.5000000   0.0000000   0.5000000), wk =   0.1250000
        k(   12) = (   0.5000000   0.5000000   0.5000000), wk =   0.0000000
        k(   13) = (   0.0000000  -1.0000000   0.0000000), wk =   0.0312500
        k(   14) = (   0.0000000  -0.5000000   0.0000000), wk =   0.0000000
        k(   15) = (  -0.5000000  -1.0000000   0.0000000), wk =   0.1250000
        k(   16) = (  -0.5000000  -0.5000000   0.0000000), wk =   0.0000000
        k(   17) = (   0.2500000  -0.2500000   0.2500000), wk =   0.1250000
        k(   18) = (   0.2500000   0.2500000   0.2500000), wk =   0.0000000
        k(   19) = (   0.0000000  -0.5000000   0.0000000), wk =   0.0312500
        k(   20) = (   0.0000000   0.0000000   0.0000000), wk =   0.0000000
        k(   21) = (   0.5000000   0.0000000   0.0000000), wk =   0.1250000
        k(   22) = (   0.5000000   0.5000000   0.0000000), wk =   0.0000000
        k(   23) = (  -0.7500000   0.2500000  -0.7500000), wk =   0.1250000
        k(   24) = (  -0.7500000   0.7500000  -0.7500000), wk =   0.0000000
        k(   25) = (  -0.2500000   0.7500000  -0.7500000), wk =   0.2500000
        k(   26) = (  -0.2500000   1.2500000  -0.7500000), wk =   0.0000000
        k(   27) = (  -0.2500000  -0.7500000  -0.7500000), wk =   0.2500000
        k(   28) = (  -0.2500000  -0.2500000  -0.7500000), wk =   0.0000000
        k(   29) = (   0.0000000   0.5000000  -0.5000000), wk =   0.1250000
        k(   30) = (   0.0000000   1.0000000  -0.5000000), wk =   0.0000000
        k(   31) = (   0.0000000  -0.5000000  -0.5000000), wk =   0.1250000
        k(   32) = (   0.0000000   0.0000000  -0.5000000), wk =   0.0000000
        k(   33) = (  -1.0000000   0.0000000   0.0000000), wk =   0.0625000
        k(   34) = (  -1.0000000   0.5000000   0.0000000), wk =   0.0000000
        k(   35) = (  -1.0000000  -0.5000000   0.0000000), wk =   0.0625000
        k(   36) = (  -1.0000000   0.0000000   0.0000000), wk =   0.0000000

     Dense  grid:     4285 G-vectors     FFT dimensions: (  24,  24,  24)

     Estimated max dynamical RAM per process >       0.55 MB

     Estimated total dynamical RAM >       2.21 MB

     The potential is recalculated from file :
     ./tmp/_ph0/silicon.save/charge-density

     Starting wfcs are    8 atomic wfcs

     Band Structure Calculation
     Davidson diagonalization with overlap

     ethr =  1.25E-10,  avg # of iterations =  9.7

     total cpu time spent up to now is        2.2 secs

     End of band structure calculation

          k = 0.0000 0.0000 0.0000 (   537 PWs)   bands (ev):

    -5.9335   5.9572   5.9572   5.9572

          k = 0.0000 0.5000 0.0000 (   560 PWs)   bands (ev):

    -4.8612   2.4230   4.0846   4.0846

          k =-0.2500 0.2500-0.2500 (   543 PWs)   bands (ev):

    -5.1406   2.0298   5.2052   5.2052

          k =-0.2500 0.7500-0.2500 (   542 PWs)   bands (ev):

    -3.2392  -0.4077   2.4324   3.7730

          k = 0.5000-0.5000 0.5000 (   544 PWs)   bands (ev):

    -3.6208  -0.9891   4.7711   4.7711

          k = 0.5000 0.0000 0.5000 (   540 PWs)   bands (ev):

    -3.9073   0.4858   2.2164   4.6429

          k = 0.0000 0.5000 0.0000 (   560 PWs)   bands (ev):

    -4.8612   2.4230   4.0846   4.0846

          k = 0.0000 1.0000 0.0000 (   524 PWs)   bands (ev):

    -1.8277  -1.8277   3.1310   3.1310

          k = 0.7500-0.2500 0.7500 (   542 PWs)   bands (ev):

    -3.2392  -0.4077   2.4324   3.7730

          k = 0.7500 0.2500 0.7500 (   542 PWs)   bands (ev):

    -3.2392  -0.4077   2.4324   3.7730

          k = 0.5000 0.0000 0.5000 (   540 PWs)   bands (ev):

    -3.9073   0.4858   2.2164   4.6429

          k = 0.5000 0.5000 0.5000 (   544 PWs)   bands (ev):

    -3.6208  -0.9891   4.7711   4.7711

          k = 0.0000-1.0000 0.0000 (   524 PWs)   bands (ev):

    -1.8277  -1.8277   3.1310   3.1310

          k = 0.0000-0.5000 0.0000 (   560 PWs)   bands (ev):

    -4.8612   2.4230   4.0846   4.0846

          k =-0.5000-1.0000 0.0000 (   524 PWs)   bands (ev):

    -1.6649  -1.6649   2.1212   2.1212

          k =-0.5000-0.5000 0.0000 (   540 PWs)   bands (ev):

    -3.9073   0.4858   2.2164   4.6429

          k = 0.2500-0.2500 0.2500 (   543 PWs)   bands (ev):

    -5.1406   2.0298   5.2052   5.2052

          k = 0.2500 0.2500 0.2500 (   543 PWs)   bands (ev):

    -5.1406   2.0298   5.2052   5.2052

          k = 0.0000-0.5000 0.0000 (   560 PWs)   bands (ev):

    -4.8612   2.4230   4.0846   4.0846

          k = 0.0000 0.0000 0.0000 (   537 PWs)   bands (ev):

    -5.9335   5.9572   5.9572   5.9572

          k = 0.5000 0.0000 0.0000 (   560 PWs)   bands (ev):

    -4.8612   2.4230   4.0846   4.0846

          k = 0.5000 0.5000 0.0000 (   540 PWs)   bands (ev):

    -3.9073   0.4858   2.2164   4.6429

          k =-0.7500 0.2500-0.7500 (   542 PWs)   bands (ev):

    -3.2392  -0.4077   2.4324   3.7730

          k =-0.7500 0.7500-0.7500 (   543 PWs)   bands (ev):

    -5.1406   2.0298   5.2052   5.2052

          k =-0.2500 0.7500-0.7500 (   542 PWs)   bands (ev):

    -3.2392  -0.4077   2.4324   3.7730

          k =-0.2500 1.2500-0.7500 (   542 PWs)   bands (ev):

    -3.2392  -0.4077   2.4324   3.7730

          k =-0.2500-0.7500-0.7500 (   542 PWs)   bands (ev):

    -3.2392  -0.4077   2.4324   3.7730

          k =-0.2500-0.2500-0.7500 (   542 PWs)   bands (ev):

    -3.2392  -0.4077   2.4324   3.7730

          k = 0.0000 0.5000-0.5000 (   540 PWs)   bands (ev):

    -3.9073   0.4858   2.2164   4.6429

          k = 0.0000 1.0000-0.5000 (   524 PWs)   bands (ev):

    -1.6649  -1.6649   2.1212   2.1212

          k = 0.0000-0.5000-0.5000 (   540 PWs)   bands (ev):

    -3.9073   0.4858   2.2164   4.6429

          k = 0.0000 0.0000-0.5000 (   560 PWs)   bands (ev):

    -4.8612   2.4230   4.0846   4.0846

          k =-1.0000 0.0000 0.0000 (   524 PWs)   bands (ev):

    -1.8277  -1.8277   3.1310   3.1310

          k =-1.0000 0.5000 0.0000 (   524 PWs)   bands (ev):

    -1.6649  -1.6649   2.1212   2.1212

          k =-1.0000-0.5000 0.0000 (   524 PWs)   bands (ev):

    -1.6649  -1.6649   2.1212   2.1212

          k =-1.0000 0.0000 0.0000 (   524 PWs)   bands (ev):

    -1.8277  -1.8277   3.1310   3.1310

     highest occupied level (ev):     5.9572

     Writing output data file ./tmp/_ph0/silicon.save/

     Ph                                                                         

     bravais-lattice index     =            2
     lattice parameter (alat)  =      10.3000  a.u.
     unit-cell volume          =     273.1818 (a.u.)^3
     number of atoms/cell      =            2
     number of atomic types    =            1
     kinetic-energy cut-off    =      24.0000  Ry
     charge density cut-off    =      96.0000  Ry
     convergence threshold     =      1.0E-16
     beta                      =       0.7000
     number of iterations used =            4
     Exchange-correlation= PZ
                           (   1   1   0   0   0   0   0)


     celldm(1)=   10.30000  celldm(2)=    0.00000  celldm(3)=    0.00000
     celldm(4)=    0.00000  celldm(5)=    0.00000  celldm(6)=    0.00000

     crystal axes: (cart. coord. in units of alat)
               a(1) = ( -0.5000  0.0000  0.5000 )  
               a(2) = (  0.0000  0.5000  0.5000 )  
               a(3) = ( -0.5000  0.5000  0.0000 )  

     reciprocal axes: (cart. coord. in units 2 pi/alat)
               b(1) = ( -1.0000 -1.0000  1.0000 )  
               b(2) = (  1.0000  1.0000  1.0000 )  
               b(3) = ( -1.0000  1.0000 -1.0000 )  


     Atoms inside the unit cell: 

     Cartesian axes

     site n.  atom      mass           positions (alat units)
        1     Si  28.0860   tau(    1) = (    0.00000    0.00000    0.00000  )
        2     Si  28.0860   tau(    2) = (    0.25000    0.25000    0.25000  )

     Computing dynamical matrix for 
                    q = (   0.0000000   0.5000000   0.0000000 )

      8 Sym.Ops. (no q -> -q+G )


     G cutoff =  257.9799  (   1073 G-vectors)     FFT grid: ( 24, 24, 24)
     number of k points=    36

     PseudoPot. # 1 for Si read from file:
     ../Si.pz-rrkj.UPF
     MD5 check sum: 884b380b739b48e9cd334294cddc9a8d
     Pseudo is Norm-conserving, Zval =  4.0
     Generated using "atomic" code by A. Dal Corso (espresso distribution)
     Using radial grid of 1141 points,  2 beta functions with: 
                l(1) =   0
                l(2) =   1

     Mode symmetry, C_4v (4mm)  point group:


     Atomic displacements:
     There are    4 irreducible representations

     Representation     1      1 modes -  To be done

     Representation     2      1 modes -  To be done

     Representation     3      2 modes -  To be done

     Representation     4      2 modes -  To be done



     Alpha used in Ewald sum =   1.0000
     PHONON       :     31.08s CPU     41.90s WALL



     Representation #   1 mode #   1

     Self-consistent Calculation

      iter #   1 total cpu time :    42.1 secs   av.it.:   5.7
      thresh= 1.000E-02 alpha_mix =  0.700 |ddv_scf|^2 =  1.663E-03

      iter #   2 total cpu time :    42.3 secs   av.it.:   7.4
      thresh= 4.078E-03 alpha_mix =  0.700 |ddv_scf|^2 =  2.039E-02

      iter #   3 total cpu time :    42.6 secs   av.it.:   6.4
      thresh= 1.000E-02 alpha_mix =  0.700 |ddv_scf|^2 =  1.746E-08

      iter #   4 total cpu time :    42.9 secs   av.it.:   8.3
      thresh= 1.321E-05 alpha_mix =  0.700 |ddv_scf|^2 =  1.128E-09

      iter #   5 total cpu time :    43.1 secs   av.it.:   8.1
      thresh= 3.359E-06 alpha_mix =  0.700 |ddv_scf|^2 =  2.569E-11

      iter #   6 total cpu time :    43.4 secs   av.it.:   7.3
      thresh= 5.068E-07 alpha_mix =  0.700 |ddv_scf|^2 =  1.301E-12

      iter #   7 total cpu time :    43.6 secs   av.it.:   6.6
      thresh= 1.141E-07 alpha_mix =  0.700 |ddv_scf|^2 =  1.008E-14

      iter #   8 total cpu time :    43.9 secs   av.it.:   7.1
      thresh= 1.004E-08 alpha_mix =  0.700 |ddv_scf|^2 =  1.025E-17

     End of self-consistent calculation

     Convergence has been achieved 


     Representation #   2 mode #   2

     Self-consistent Calculation

      iter #   1 total cpu time :    44.2 secs   av.it.:   5.1
      thresh= 1.000E-02 alpha_mix =  0.700 |ddv_scf|^2 =  3.175E-06

      iter #   2 total cpu time :    44.5 secs   av.it.:   8.2
      thresh= 1.782E-04 alpha_mix =  0.700 |ddv_scf|^2 =  7.350E-07

      iter #   3 total cpu time :    44.8 secs   av.it.:   7.9
      thresh= 8.573E-05 alpha_mix =  0.700 |ddv_scf|^2 =  3.927E-09

      iter #   4 total cpu time :    45.1 secs   av.it.:   8.1
      thresh= 6.266E-06 alpha_mix =  0.700 |ddv_scf|^2 =  8.670E-11

      iter #   5 total cpu time :    45.4 secs   av.it.:   7.7
      thresh= 9.311E-07 alpha_mix =  0.700 |ddv_scf|^2 =  1.487E-12

      iter #   6 total cpu time :    45.6 secs   av.it.:   7.7
      thresh= 1.219E-07 alpha_mix =  0.700 |ddv_scf|^2 =  7.501E-16

      iter #   7 total cpu time :    45.9 secs   av.it.:   8.4
      thresh= 2.739E-09 alpha_mix =  0.700 |ddv_scf|^2 =  2.293E-17

     End of self-consistent calculation

     Convergence has been achieved 


     Representation #   3 modes #   3   4

     Self-consistent Calculation

      iter #   1 total cpu time :    46.6 secs   av.it.:   5.4
      thresh= 1.000E-02 alpha_mix =  0.700 |ddv_scf|^2 =  7.492E-07

      iter #   2 total cpu time :    47.2 secs   av.it.:   9.3
      thresh= 8.655E-05 alpha_mix =  0.700 |ddv_scf|^2 =  1.272E-07

      iter #   3 total cpu time :    47.9 secs   av.it.:   8.9
      thresh= 3.566E-05 alpha_mix =  0.700 |ddv_scf|^2 =  1.210E-10

      iter #   4 total cpu time :    48.6 secs   av.it.:   8.9
      thresh= 1.100E-06 alpha_mix =  0.700 |ddv_scf|^2 =  6.007E-12

      iter #   5 total cpu time :    49.3 secs   av.it.:   8.6
      thresh= 2.451E-07 alpha_mix =  0.700 |ddv_scf|^2 =  5.817E-15

      iter #   6 total cpu time :    50.0 secs   av.it.:   9.6
      thresh= 7.627E-09 alpha_mix =  0.700 |ddv_scf|^2 =  2.438E-17

     End of self-consistent calculation

     Convergence has been achieved 


     Representation #   4 modes #   5   6

     Self-consistent Calculation

      iter #   1 total cpu time :    50.5 secs   av.it.:   5.3
      thresh= 1.000E-02 alpha_mix =  0.700 |ddv_scf|^2 =  4.952E-07

      iter #   2 total cpu time :    51.8 secs   av.it.:   9.2
      thresh= 7.037E-05 alpha_mix =  0.700 |ddv_scf|^2 =  8.194E-08

      iter #   3 total cpu time :    52.4 secs   av.it.:   8.9
      thresh= 2.862E-05 alpha_mix =  0.700 |ddv_scf|^2 =  1.281E-10

      iter #   4 total cpu time :    53.2 secs   av.it.:   8.8
      thresh= 1.132E-06 alpha_mix =  0.700 |ddv_scf|^2 =  6.774E-12

      iter #   5 total cpu time :    53.8 secs   av.it.:   8.6
      thresh= 2.603E-07 alpha_mix =  0.700 |ddv_scf|^2 =  7.009E-15

      iter #   6 total cpu time :    54.4 secs   av.it.:   9.6
      thresh= 8.372E-09 alpha_mix =  0.700 |ddv_scf|^2 =  2.726E-17

     End of self-consistent calculation

     Convergence has been achieved 

     Number of q in the star =    6
     List of q in the star:
          1   0.000000000   0.500000000   0.000000000
          2   0.000000000  -0.500000000   0.000000000
          3   0.500000000   0.000000000   0.000000000
          4   0.000000000   0.000000000   0.500000000
          5   0.000000000   0.000000000  -0.500000000
          6  -0.500000000   0.000000000   0.000000000

     Diagonalizing the dynamical matrix

     q = (    0.000000000   0.500000000   0.000000000 ) 

 **************************************************************************
     freq (    1) =       3.834790 [THz] =     127.914827 [cm-1]
     freq (    2) =       3.834790 [THz] =     127.914827 [cm-1]
     freq (    3) =       6.951849 [THz] =     231.888706 [cm-1]
     freq (    4) =      13.679923 [THz] =     456.313122 [cm-1]
     freq (    5) =      13.679923 [THz] =     456.313122 [cm-1]
     freq (    6) =      14.478560 [THz] =     482.952774 [cm-1]
 **************************************************************************

     Mode symmetry, C_4v (4mm)  point group:

     freq (   1-   2) =        127.9  [cm-1]   --> E    G_5 D_5       
     freq (   3-   3) =        231.9  [cm-1]   --> A_1  G_1 D_1       
     freq (   4-   5) =        456.3  [cm-1]   --> E    G_5 D_5       
     freq (   6-   6) =        483.0  [cm-1]   --> B_2  G_4 D_2'      

     Calculation of q =    0.7500000  -0.2500000   0.7500000

     Parallelization info
     --------------------
     sticks:   dense  smooth     PW     G-vecs:    dense   smooth      PW
     Min          87      87     37                 1070     1070     284
     Max          88      88     38                 1073     1073     285
     Sum         349     349    151                 4285     4285    1139

     Using Slab Decomposition


     Title: 
     Ph                                                                         


     bravais-lattice index     =            2
     lattice parameter (alat)  =      10.3000  a.u.
     unit-cell volume          =     273.1818 (a.u.)^3
     number of atoms/cell      =            2
     number of atomic types    =            1
     number of electrons       =         8.00
     number of Kohn-Sham states=            4
     kinetic-energy cutoff     =      24.0000  Ry
     charge density cutoff     =      96.0000  Ry
     Exchange-correlation= PZ
                           (   1   1   0   0   0   0   0)

     celldm(1)=  10.300000  celldm(2)=   0.000000  celldm(3)=   0.000000
     celldm(4)=   0.000000  celldm(5)=   0.000000  celldm(6)=   0.000000

     crystal axes: (cart. coord. in units of alat)
               a(1) = (  -0.500000   0.000000   0.500000 )  
               a(2) = (   0.000000   0.500000   0.500000 )  
               a(3) = (  -0.500000   0.500000   0.000000 )  

     reciprocal axes: (cart. coord. in units 2 pi/alat)
               b(1) = ( -1.000000 -1.000000  1.000000 )  
               b(2) = (  1.000000  1.000000  1.000000 )  
               b(3) = ( -1.000000  1.000000 -1.000000 )  


     PseudoPot. # 1 for Si read from file:
     ../Si.pz-rrkj.UPF
     MD5 check sum: 884b380b739b48e9cd334294cddc9a8d
     Pseudo is Norm-conserving, Zval =  4.0
     Generated using "atomic" code by A. Dal Corso (espresso distribution)
     Using radial grid of 1141 points,  2 beta functions with: 
                l(1) =   0
                l(2) =   1

     atomic species   valence    mass     pseudopotential
        Si             4.00    28.08600     Si( 1.00)

     48 Sym. Ops., with inversion, found



   Cartesian axes

     site n.     atom                  positions (alat units)
         1           Si  tau(   1) = (   0.0000000   0.0000000   0.0000000  )
         2           Si  tau(   2) = (   0.2500000   0.2500000   0.2500000  )

     number of k points=    80
                       cart. coord. in units 2pi/alat
        k(    1) = (   0.0000000   0.0000000   0.0000000), wk =   0.0312500
        k(    2) = (   0.7500000  -0.2500000   0.7500000), wk =   0.0000000
        k(    3) = (  -0.2500000   0.2500000  -0.2500000), wk =   0.0312500
        k(    4) = (   0.5000000   0.0000000   0.5000000), wk =   0.0000000
        k(    5) = (   0.5000000  -0.5000000   0.5000000), wk =   0.0312500
        k(    6) = (   1.2500000  -0.7500000   1.2500000), wk =   0.0000000
        k(    7) = (   0.0000000   0.5000000   0.0000000), wk =   0.0312500
        k(    8) = (   0.7500000   0.2500000   0.7500000), wk =   0.0000000
        k(    9) = (   0.7500000  -0.2500000   0.7500000), wk =   0.0312500
        k(   10) = (   1.5000000  -0.5000000   1.5000000), wk =   0.0000000
        k(   11) = (   0.5000000   0.0000000   0.5000000), wk =   0.0312500
        k(   12) = (   1.2500000  -0.2500000   1.2500000), wk =   0.0000000
        k(   13) = (   0.0000000  -1.0000000   0.0000000), wk =   0.0312500
        k(   14) = (   0.7500000  -1.2500000   0.7500000), wk =   0.0000000
        k(   15) = (  -0.5000000  -1.0000000   0.0000000), wk =   0.0625000
        k(   16) = (   0.2500000  -1.2500000   0.7500000), wk =   0.0000000
        k(   17) = (  -0.2500000   0.2500000   0.2500000), wk =   0.0625000
        k(   18) = (   0.5000000   0.0000000   1.0000000), wk =   0.0000000
        k(   19) = (   0.2500000   0.2500000   0.2500000), wk =   0.0312500
        k(   20) = (   1.0000000   0.0000000   1.0000000), wk =   0.0000000
        k(   21) = (   0.2500000  -0.2500000   0.2500000), wk =   0.0312500
        k(   22) = (   1.0000000  -0.5000000   1.0000000), wk =   0.0000000
        k(   23) = (  -0.2500000  -0.2500000  -0.2500000), wk =   0.0312500
        k(   24) = (   0.5000000  -0.5000000   0.5000000), wk =   0.0000000
        k(   25) = (   0.2500000  -0.2500000  -0.2500000), wk =   0.0625000
        k(   26) = (   1.0000000  -0.5000000   0.5000000), wk =   0.0000000
        k(   27) = (   0.5000000  -0.5000000  -0.5000000), wk =   0.0625000
        k(   28) = (   1.2500000  -0.7500000   0.2500000), wk =   0.0000000
        k(   29) = (  -0.5000000  -0.5000000  -0.5000000), wk =   0.0312500
        k(   30) = (   0.2500000  -0.7500000   0.2500000), wk =   0.0000000
        k(   31) = (   0.0000000  -0.5000000   0.0000000), wk =   0.0312500
        k(   32) = (   0.7500000  -0.7500000   0.7500000), wk =   0.0000000
        k(   33) = (   0.5000000   0.0000000   0.0000000), wk =   0.0625000
        k(   34) = (   1.2500000  -0.2500000   0.7500000), wk =   0.0000000
        k(   35) = (   0.0000000   0.0000000  -0.5000000), wk =   0.0625000
        k(   36) = (   0.7500000  -0.2500000   0.2500000), wk =   0.0000000
        k(   37) = (   0.7500000  -0.2500000  -0.7500000), wk =   0.0625000
        k(   38) = (   1.5000000  -0.5000000   0.0000000), wk =   0.0000000
        k(   39) = (  -0.7500000  -0.2500000  -0.7500000), wk =   0.0312500
        k(   40) = (   0.0000000  -0.5000000   0.0000000), wk =   0.0000000
        k(   41) = (  -0.7500000   0.2500000  -0.7500000), wk =   0.0312500
        k(   42) = (   0.0000000   0.0000000   0.0000000), wk =   0.0000000
        k(   43) = (  -0.2500000   0.7500000  -0.7500000), wk =   0.0625000
        k(   44) = (   0.5000000   0.5000000   0.0000000), wk =   0.0000000
        k(   45) = (   0.7500000   0.2500000   0.7500000), wk =   0.0312500
        k(   46) = (   1.5000000   0.0000000   1.5000000), wk =   0.0000000
        k(   47) = (  -0.7500000   0.2500000   0.7500000), wk =   0.0625000
        k(   48) = (   0.0000000   0.0000000   1.5000000), wk =   0.0000000
        k(   49) = (  -0.7500000   0.7500000   0.2500000), wk =   0.0625000
        k(   50) = (   0.0000000   0.5000000   1.0000000), wk =   0.0000000
        k(   51) = (  -0.2500000   0.7500000   0.7500000), wk =   0.0625000
        k(   52) = (   0.5000000   0.5000000   1.5000000), wk =   0.0000000
        k(   53) = (  -0.2500000  -0.7500000  -0.7500000), wk =   0.0625000
        k(   54) = (   0.5000000  -1.0000000   0.0000000), wk =   0.0000000
        k(   55) = (   0.7500000  -0.7500000   0.2500000), wk =   0.0625000
        k(   56) = (   1.5000000  -1.0000000   1.0000000), wk =   0.0000000
        k(   57) = (  -0.7500000  -0.7500000   0.2500000), wk =   0.0625000
        k(   58) = (   0.0000000  -1.0000000   1.0000000), wk =   0.0000000
        k(   59) = (   0.2500000   0.7500000   0.7500000), wk =   0.0625000
        k(   60) = (   1.0000000   0.5000000   1.5000000), wk =   0.0000000
        k(   61) = (  -0.2500000  -0.7500000   0.7500000), wk =   0.0625000
        k(   62) = (   0.5000000  -1.0000000   1.5000000), wk =   0.0000000
        k(   63) = (   0.5000000   0.0000000  -0.5000000), wk =   0.0625000
        k(   64) = (   1.2500000  -0.2500000   0.2500000), wk =   0.0000000
        k(   65) = (  -0.5000000   0.0000000  -0.5000000), wk =   0.0312500
        k(   66) = (   0.2500000  -0.2500000   0.2500000), wk =   0.0000000
        k(   67) = (   0.0000000   0.5000000  -0.5000000), wk =   0.0625000
        k(   68) = (   0.7500000   0.2500000   0.2500000), wk =   0.0000000
        k(   69) = (   0.0000000   0.5000000   0.5000000), wk =   0.0625000
        k(   70) = (   0.7500000   0.2500000   1.2500000), wk =   0.0000000
        k(   71) = (   0.0000000  -0.5000000  -0.5000000), wk =   0.0625000
        k(   72) = (   0.7500000  -0.7500000   0.2500000), wk =   0.0000000
        k(   73) = (   0.5000000  -0.5000000   0.0000000), wk =   0.0625000
        k(   74) = (   1.2500000  -0.7500000   0.7500000), wk =   0.0000000
        k(   75) = (  -1.0000000   0.0000000   0.0000000), wk =   0.0625000
        k(   76) = (  -0.2500000  -0.2500000   0.7500000), wk =   0.0000000
        k(   77) = (   0.5000000  -1.0000000   0.0000000), wk =   0.0625000
        k(   78) = (   1.2500000  -1.2500000   0.7500000), wk =   0.0000000
        k(   79) = (  -1.0000000  -0.5000000   0.0000000), wk =   0.0625000
        k(   80) = (  -0.2500000  -0.7500000   0.7500000), wk =   0.0000000

     Dense  grid:     4285 G-vectors     FFT dimensions: (  24,  24,  24)

     Estimated max dynamical RAM per process >       0.55 MB

     Estimated total dynamical RAM >       2.22 MB

     The potential is recalculated from file :
     ./tmp/_ph0/silicon.save/charge-density

     Starting wfcs are    8 atomic wfcs

     Band Structure Calculation
     Davidson diagonalization with overlap

     ethr =  1.25E-10,  avg # of iterations =  9.8

     total cpu time spent up to now is        4.1 secs

     End of band structure calculation

          k = 0.0000 0.0000 0.0000 (   537 PWs)   bands (ev):

    -5.9335   5.9572   5.9572   5.9572

          k = 0.7500-0.2500 0.7500 (   542 PWs)   bands (ev):

    -3.2392  -0.4077   2.4324   3.7730

          k =-0.2500 0.2500-0.2500 (   543 PWs)   bands (ev):

    -5.1406   2.0298   5.2052   5.2052

          k = 0.5000 0.0000 0.5000 (   540 PWs)   bands (ev):

    -3.9073   0.4858   2.2164   4.6429

          k = 0.5000-0.5000 0.5000 (   544 PWs)   bands (ev):

    -3.6208  -0.9891   4.7711   4.7711

          k = 1.2500-0.7500 1.2500 (   543 PWs)   bands (ev):

    -5.1406   2.0298   5.2052   5.2052

          k = 0.0000 0.5000 0.0000 (   560 PWs)   bands (ev):

    -4.8612   2.4230   4.0846   4.0846

          k = 0.7500 0.2500 0.7500 (   542 PWs)   bands (ev):

    -3.2392  -0.4077   2.4324   3.7730

          k = 0.7500-0.2500 0.7500 (   542 PWs)   bands (ev):

    -3.2392  -0.4077   2.4324   3.7730

          k = 1.5000-0.5000 1.5000 (   544 PWs)   bands (ev):

    -3.6208  -0.9891   4.7711   4.7711

          k = 0.5000 0.0000 0.5000 (   540 PWs)   bands (ev):

    -3.9073   0.4858   2.2164   4.6429

          k = 1.2500-0.2500 1.2500 (   542 PWs)   bands (ev):

    -3.2392  -0.4077   2.4324   3.7730

          k = 0.0000-1.0000 0.0000 (   524 PWs)   bands (ev):

    -1.8277  -1.8277   3.1310   3.1310

          k = 0.7500-1.2500 0.7500 (   543 PWs)   bands (ev):

    -5.1406   2.0298   5.2052   5.2052

          k =-0.5000-1.0000 0.0000 (   524 PWs)   bands (ev):

    -1.6649  -1.6649   2.1212   2.1212

          k = 0.2500-1.2500 0.7500 (   542 PWs)   bands (ev):

    -3.2392  -0.4077   2.4324   3.7730

          k =-0.2500 0.2500 0.2500 (   543 PWs)   bands (ev):

    -5.1406   2.0298   5.2052   5.2052

          k = 0.5000 0.0000 1.0000 (   524 PWs)   bands (ev):

    -1.6649  -1.6649   2.1212   2.1212

          k = 0.2500 0.2500 0.2500 (   543 PWs)   bands (ev):

    -5.1406   2.0298   5.2052   5.2052

          k = 1.0000 0.0000 1.0000 (   524 PWs)   bands (ev):

    -1.8277  -1.8277   3.1310   3.1310

          k = 0.2500-0.2500 0.2500 (   543 PWs)   bands (ev):

    -5.1406   2.0298   5.2052   5.2052

          k = 1.0000-0.5000 1.0000 (   560 PWs)   bands (ev):

    -4.8612   2.4230   4.0846   4.0846

          k =-0.2500-0.2500-0.2500 (   543 PWs)   bands (ev):

    -5.1406   2.0298   5.2052   5.2052

          k = 0.5000-0.5000 0.5000 (   544 PWs)   bands (ev):

    -3.6208  -0.9891   4.7711   4.7711

          k = 0.2500-0.2500-0.2500 (   543 PWs)   bands (ev):

    -5.1406   2.0298   5.2052   5.2052

          k = 1.0000-0.5000 0.5000 (   540 PWs)   bands (ev):

    -3.9073   0.4858   2.2164   4.6429

          k = 0.5000-0.5000-0.5000 (   544 PWs)   bands (ev):

    -3.6208  -0.9891   4.7711   4.7711

          k = 1.2500-0.7500 0.2500 (   542 PWs)   bands (ev):

    -3.2392  -0.4077   2.4324   3.7730

          k =-0.5000-0.5000-0.5000 (   544 PWs)   bands (ev):

    -3.6208  -0.9891   4.7711   4.7711

          k = 0.2500-0.7500 0.2500 (   542 PWs)   bands (ev):

    -3.2392  -0.4077   2.4324   3.7730

          k = 0.0000-0.5000 0.0000 (   560 PWs)   bands (ev):

    -4.8612   2.4230   4.0846   4.0846

          k = 0.7500-0.7500 0.7500 (   543 PWs)   bands (ev):

    -5.1406   2.0298   5.2052   5.2052

          k = 0.5000 0.0000 0.0000 (   560 PWs)   bands (ev):

    -4.8612   2.4230   4.0846   4.0846

          k = 1.2500-0.2500 0.7500 (   542 PWs)   bands (ev):

    -3.2392  -0.4077   2.4324   3.7730

          k = 0.0000 0.0000-0.5000 (   560 PWs)   bands (ev):

    -4.8612   2.4230   4.0846   4.0846

          k = 0.7500-0.2500 0.2500 (   542 PWs)   bands (ev):

    -3.2392  -0.4077   2.4324   3.7730

          k = 0.7500-0.2500-0.7500 (   542 PWs)   bands (ev):

    -3.2392  -0.4077   2.4324   3.7730

          k = 1.5000-0.5000 0.0000 (   540 PWs)   bands (ev):

    -3.9073   0.4858   2.2164   4.6429

          k =-0.7500-0.2500-0.7500 (   542 PWs)   bands (ev):

    -3.2392  -0.4077   2.4324   3.7730

          k = 0.0000-0.5000 0.0000 (   560 PWs)   bands (ev):

    -4.8612   2.4230   4.0846   4.0846

          k =-0.7500 0.2500-0.7500 (   542 PWs)   bands (ev):

    -3.2392  -0.4077   2.4324   3.7730

          k = 0.0000 0.0000 0.0000 (   537 PWs)   bands (ev):

    -5.9335   5.9572   5.9572   5.9572

          k =-0.2500 0.7500-0.7500 (   542 PWs)   bands (ev):

    -3.2392  -0.4077   2.4324   3.7730

          k = 0.5000 0.5000 0.0000 (   540 PWs)   bands (ev):

    -3.9073   0.4858   2.2164   4.6429

          k = 0.7500 0.2500 0.7500 (   542 PWs)   bands (ev):

    -3.2392  -0.4077   2.4324   3.7730

          k = 1.5000 0.0000 1.5000 (   540 PWs)   bands (ev):

    -3.9073   0.4858   2.2164   4.6429

          k =-0.7500 0.2500 0.7500 (   542 PWs)   bands (ev):

    -3.2392  -0.4077   2.4324   3.7730

          k = 0.0000 0.0000 1.5000 (   560 PWs)   bands (ev):

    -4.8612   2.4230   4.0846   4.0846

          k =-0.7500 0.7500 0.2500 (   542 PWs)   bands (ev):

    -3.2392  -0.4077   2.4324   3.7730

          k = 0.0000 0.5000 1.0000 (   524 PWs)   bands (ev):

    -1.6649  -1.6649   2.1212   2.1212

          k =-0.2500 0.7500 0.7500 (   542 PWs)   bands (ev):

    -3.2392  -0.4077   2.4324   3.7730

          k = 0.5000 0.5000 1.5000 (   544 PWs)   bands (ev):

    -3.6208  -0.9891   4.7711   4.7711

          k =-0.2500-0.7500-0.7500 (   542 PWs)   bands (ev):

    -3.2392  -0.4077   2.4324   3.7730

          k = 0.5000-1.0000 0.0000 (   524 PWs)   bands (ev):

    -1.6649  -1.6649   2.1212   2.1212

          k = 0.7500-0.7500 0.2500 (   542 PWs)   bands (ev):

    -3.2392  -0.4077   2.4324   3.7730

          k = 1.5000-1.0000 1.0000 (   560 PWs)   bands (ev):

    -4.8612   2.4230   4.0846   4.0846

          k =-0.7500-0.7500 0.2500 (   542 PWs)   bands (ev):

    -3.2392  -0.4077   2.4324   3.7730

          k = 0.0000-1.0000 1.0000 (   524 PWs)   bands (ev):

    -1.8277  -1.8277   3.1310   3.1310

          k = 0.2500 0.7500 0.7500 (   542 PWs)   bands (ev):

    -3.2392  -0.4077   2.4324   3.7730

          k = 1.0000 0.5000 1.5000 (   540 PWs)   bands (ev):

    -3.9073   0.4858   2.2164   4.6429

          k =-0.2500-0.7500 0.7500 (   542 PWs)   bands (ev):

    -3.2392  -0.4077   2.4324   3.7730

          k = 0.5000-1.0000 1.5000 (   540 PWs)   bands (ev):

    -3.9073   0.4858   2.2164   4.6429

          k = 0.5000 0.0000-0.5000 (   540 PWs)   bands (ev):

    -3.9073   0.4858   2.2164   4.6429

          k = 1.2500-0.2500 0.2500 (   542 PWs)   bands (ev):

    -3.2392  -0.4077   2.4324   3.7730

          k =-0.5000 0.0000-0.5000 (   540 PWs)   bands (ev):

    -3.9073   0.4858   2.2164   4.6429

          k = 0.2500-0.2500 0.2500 (   543 PWs)   bands (ev):

    -5.1406   2.0298   5.2052   5.2052

          k = 0.0000 0.5000-0.5000 (   540 PWs)   bands (ev):

    -3.9073   0.4858   2.2164   4.6429

[...]


     Title: 
     Ph                                                                         


     bravais-lattice index     =            2
     lattice parameter (alat)  =      10.3000  a.u.
     unit-cell volume          =     273.1818 (a.u.)^3
     number of atoms/cell      =            2
     number of atomic types    =            1
     number of electrons       =         8.00
     number of Kohn-Sham states=            4
     kinetic-energy cutoff     =      24.0000  Ry
     charge density cutoff     =      96.0000  Ry
     Exchange-correlation= PZ
                           (   1   1   0   0   0   0   0)

     celldm(1)=  10.300000  celldm(2)=   0.000000  celldm(3)=   0.000000
     celldm(4)=   0.000000  celldm(5)=   0.000000  celldm(6)=   0.000000

     crystal axes: (cart. coord. in units of alat)
               a(1) = (  -0.500000   0.000000   0.500000 )  
               a(2) = (   0.000000   0.500000   0.500000 )  
               a(3) = (  -0.500000   0.500000   0.000000 )  

     reciprocal axes: (cart. coord. in units 2 pi/alat)
               b(1) = ( -1.000000 -1.000000  1.000000 )  
               b(2) = (  1.000000  1.000000  1.000000 )  
               b(3) = ( -1.000000  1.000000 -1.000000 )  


     PseudoPot. # 1 for Si read from file:
     ../Si.pz-rrkj.UPF
     MD5 check sum: 884b380b739b48e9cd334294cddc9a8d
     Pseudo is Norm-conserving, Zval =  4.0
     Generated using "atomic" code by A. Dal Corso (espresso distribution)
     Using radial grid of 1141 points,  2 beta functions with: 
                l(1) =   0
                l(2) =   1

     atomic species   valence    mass     pseudopotential
        Si             4.00    28.08600     Si( 1.00)

     48 Sym. Ops., with inversion, found



   Cartesian axes

     site n.     atom                  positions (alat units)
         1           Si  tau(   1) = (   0.0000000   0.0000000   0.0000000  )
         2           Si  tau(   2) = (   0.2500000   0.2500000   0.2500000  )

     number of k points=    32
                       cart. coord. in units 2pi/alat
        k(    1) = (   0.0000000   0.0000000   0.0000000), wk =   0.0312500
        k(    2) = (  -0.5000000  -1.0000000   0.0000000), wk =   0.0000000
        k(    3) = (  -0.2500000   0.2500000  -0.2500000), wk =   0.2500000
        k(    4) = (  -0.7500000  -0.7500000  -0.2500000), wk =   0.0000000
        k(    5) = (   0.5000000  -0.5000000   0.5000000), wk =   0.1250000
        k(    6) = (   0.0000000  -1.5000000   0.5000000), wk =   0.0000000
        k(    7) = (   0.0000000   0.5000000   0.0000000), wk =   0.1250000
        k(    8) = (  -0.5000000  -0.5000000   0.0000000), wk =   0.0000000
        k(    9) = (   0.7500000  -0.2500000   0.7500000), wk =   0.2500000
        k(   10) = (   0.2500000  -1.2500000   0.7500000), wk =   0.0000000
        k(   11) = (   0.5000000   0.0000000   0.5000000), wk =   0.1250000
        k(   12) = (   0.0000000  -1.0000000   0.5000000), wk =   0.0000000
        k(   13) = (   0.0000000  -1.0000000   0.0000000), wk =   0.0625000
        k(   14) = (  -0.5000000  -2.0000000   0.0000000), wk =   0.0000000
        k(   15) = (  -0.5000000  -1.0000000   0.0000000), wk =   0.0312500
        k(   16) = (  -1.0000000  -2.0000000   0.0000000), wk =   0.0000000
        k(   17) = (   0.5000000   0.0000000   0.0000000), wk =   0.0625000
        k(   18) = (   0.0000000  -1.0000000   0.0000000), wk =   0.0000000
        k(   19) = (  -0.7500000   0.2500000  -0.7500000), wk =   0.2500000
        k(   20) = (  -1.2500000  -0.7500000  -0.7500000), wk =   0.0000000
        k(   21) = (  -0.2500000   0.7500000   0.7500000), wk =   0.2500000
        k(   22) = (  -0.7500000  -0.2500000   0.7500000), wk =   0.0000000
        k(   23) = (  -0.5000000   0.0000000  -0.5000000), wk =   0.1250000
        k(   24) = (  -1.0000000  -1.0000000  -0.5000000), wk =   0.0000000
        k(   25) = (   0.0000000   0.5000000   0.5000000), wk =   0.1250000
        k(   26) = (  -0.5000000  -0.5000000   0.5000000), wk =   0.0000000
        k(   27) = (  -1.0000000   0.0000000   0.0000000), wk =   0.0312500
        k(   28) = (  -1.5000000  -1.0000000   0.0000000), wk =   0.0000000
        k(   29) = (   0.0000000   1.0000000   0.5000000), wk =   0.1250000
        k(   30) = (  -0.5000000   0.0000000   0.5000000), wk =   0.0000000
        k(   31) = (   0.5000000   1.0000000   0.0000000), wk =   0.0312500
        k(   32) = (   0.0000000   0.0000000   0.0000000), wk =   0.0000000

     Dense  grid:     4285 G-vectors     FFT dimensions: (  24,  24,  24)

     Estimated max dynamical RAM per process >       0.55 MB

     Estimated total dynamical RAM >       2.22 MB

     The potential is recalculated from file :
     ./tmp/_ph0/silicon.save/charge-density

     Starting wfcs are    8 atomic wfcs

     Band Structure Calculation
     Davidson diagonalization with overlap

     ethr =  1.25E-10,  avg # of iterations =  9.4

     total cpu time spent up to now is        6.6 secs

     End of band structure calculation

          k = 0.0000 0.0000 0.0000 (   537 PWs)   bands (ev):

    -5.9335   5.9572   5.9572   5.9572

          k =-0.5000-1.0000 0.0000 (   524 PWs)   bands (ev):

    -1.6649  -1.6649   2.1212   2.1212

          k =-0.2500 0.2500-0.2500 (   543 PWs)   bands (ev):

    -5.1406   2.0298   5.2052   5.2052

          k =-0.7500-0.7500-0.2500 (   542 PWs)   bands (ev):

    -3.2392  -0.4077   2.4324   3.7730

          k = 0.5000-0.5000 0.5000 (   544 PWs)   bands (ev):

    -3.6208  -0.9891   4.7711   4.7711

          k = 0.0000-1.5000 0.5000 (   540 PWs)   bands (ev):

    -3.9073   0.4858   2.2164   4.6429

          k = 0.0000 0.5000 0.0000 (   560 PWs)   bands (ev):

    -4.8612   2.4230   4.0846   4.0846

          k =-0.5000-0.5000 0.0000 (   540 PWs)   bands (ev):

    -3.9073   0.4858   2.2164   4.6429

          k = 0.7500-0.2500 0.7500 (   542 PWs)   bands (ev):

    -3.2392  -0.4077   2.4324   3.7730

          k = 0.2500-1.2500 0.7500 (   542 PWs)   bands (ev):

    -3.2392  -0.4077   2.4324   3.7730

          k = 0.5000 0.0000 0.5000 (   540 PWs)   bands (ev):

    -3.9073   0.4858   2.2164   4.6429

          k = 0.0000-1.0000 0.5000 (   524 PWs)   bands (ev):

    -1.6649  -1.6649   2.1212   2.1212

          k = 0.0000-1.0000 0.0000 (   524 PWs)   bands (ev):

    -1.8277  -1.8277   3.1310   3.1310

          k =-0.5000-2.0000 0.0000 (   560 PWs)   bands (ev):

    -4.8612   2.4230   4.0846   4.0846

          k =-0.5000-1.0000 0.0000 (   524 PWs)   bands (ev):

    -1.6649  -1.6649   2.1212   2.1212

          k =-1.0000-2.0000 0.0000 (   524 PWs)   bands (ev):

    -1.8277  -1.8277   3.1310   3.1310

          k = 0.5000 0.0000 0.0000 (   560 PWs)   bands (ev):

    -4.8612   2.4230   4.0846   4.0846

          k = 0.0000-1.0000 0.0000 (   524 PWs)   bands (ev):

    -1.8277  -1.8277   3.1310   3.1310

          k =-0.7500 0.2500-0.7500 (   542 PWs)   bands (ev):

    -3.2392  -0.4077   2.4324   3.7730

          k =-1.2500-0.7500-0.7500 (   543 PWs)   bands (ev):

    -5.1406   2.0298   5.2052   5.2052

          k =-0.2500 0.7500 0.7500 (   542 PWs)   bands (ev):

    -3.2392  -0.4077   2.4324   3.7730

          k =-0.7500-0.2500 0.7500 (   542 PWs)   bands (ev):

    -3.2392  -0.4077   2.4324   3.7730

          k =-0.5000 0.0000-0.5000 (   540 PWs)   bands (ev):

    -3.9073   0.4858   2.2164   4.6429

          k =-1.0000-1.0000-0.5000 (   560 PWs)   bands (ev):

    -4.8612   2.4230   4.0846   4.0846

          k = 0.0000 0.5000 0.5000 (   540 PWs)   bands (ev):

    -3.9073   0.4858   2.2164   4.6429

          k =-0.5000-0.5000 0.5000 (   544 PWs)   bands (ev):

    -3.6208  -0.9891   4.7711   4.7711

          k =-1.0000 0.0000 0.0000 (   524 PWs)   bands (ev):

    -1.8277  -1.8277   3.1310   3.1310

          k =-1.5000-1.0000 0.0000 (   524 PWs)   bands (ev):

    -1.6649  -1.6649   2.1212   2.1212

          k = 0.0000 1.0000 0.5000 (   524 PWs)   bands (ev):

    -1.6649  -1.6649   2.1212   2.1212

          k =-0.5000 0.0000 0.5000 (   540 PWs)   bands (ev):

    -3.9073   0.4858   2.2164   4.6429

          k = 0.5000 1.0000 0.0000 (   524 PWs)   bands (ev):

    -1.6649  -1.6649   2.1212   2.1212

          k = 0.0000 0.0000 0.0000 (   537 PWs)   bands (ev):

    -5.9335   5.9572   5.9572   5.9572

     highest occupied level (ev):     5.9572

     Writing output data file ./tmp/_ph0/silicon.save/

     Ph                                                                         

     bravais-lattice index     =            2
     lattice parameter (alat)  =      10.3000  a.u.
     unit-cell volume          =     273.1818 (a.u.)^3
     number of atoms/cell      =            2
     number of atomic types    =            1
     kinetic-energy cut-off    =      24.0000  Ry
     charge density cut-off    =      96.0000  Ry
     convergence threshold     =      1.0E-16
     beta                      =       0.7000
     number of iterations used =            4
     Exchange-correlation= PZ
                           (   1   1   0   0   0   0   0)


     celldm(1)=   10.30000  celldm(2)=    0.00000  celldm(3)=    0.00000
     celldm(4)=    0.00000  celldm(5)=    0.00000  celldm(6)=    0.00000

     crystal axes: (cart. coord. in units of alat)
               a(1) = ( -0.5000  0.0000  0.5000 )  
               a(2) = (  0.0000  0.5000  0.5000 )  
               a(3) = ( -0.5000  0.5000  0.0000 )  

     reciprocal axes: (cart. coord. in units 2 pi/alat)
               b(1) = ( -1.0000 -1.0000  1.0000 )  
               b(2) = (  1.0000  1.0000  1.0000 )  
               b(3) = ( -1.0000  1.0000 -1.0000 )  


     Atoms inside the unit cell: 

     Cartesian axes

     site n.  atom      mass           positions (alat units)
        1     Si  28.0860   tau(    1) = (    0.00000    0.00000    0.00000  )
        2     Si  28.0860   tau(    2) = (    0.25000    0.25000    0.25000  )

     Computing dynamical matrix for 
                    q = (  -0.5000000  -1.0000000   0.0000000 )

      8 Sym.Ops. (no q -> -q+G )


     G cutoff =  257.9799  (   1073 G-vectors)     FFT grid: ( 24, 24, 24)
     number of k points=    32

     PseudoPot. # 1 for Si read from file:
     ../Si.pz-rrkj.UPF
     MD5 check sum: 884b380b739b48e9cd334294cddc9a8d
     Pseudo is Norm-conserving, Zval =  4.0
     Generated using "atomic" code by A. Dal Corso (espresso distribution)
     Using radial grid of 1141 points,  2 beta functions with: 
                l(1) =   0
                l(2) =   1


     Atomic displacements:
     There are    3 irreducible representations

     Representation     1      2 modes -  To be done

     Representation     2      2 modes -  To be done

     Representation     3      2 modes -  To be done



     Alpha used in Ewald sum =   1.0000
     PHONON       :   1m48.63s CPU   2m28.08s WALL



     Representation #   1 modes #   1   2

     Self-consistent Calculation

      iter #   1 total cpu time :   148.5 secs   av.it.:   5.6
      thresh= 1.000E-02 alpha_mix =  0.700 |ddv_scf|^2 =  5.865E-06

      iter #   2 total cpu time :   149.3 secs   av.it.:   9.1
      thresh= 2.422E-04 alpha_mix =  0.700 |ddv_scf|^2 =  7.431E-06

      iter #   3 total cpu time :   150.1 secs   av.it.:   8.5
      thresh= 2.726E-04 alpha_mix =  0.700 |ddv_scf|^2 =  1.103E-09

      iter #   4 total cpu time :   151.0 secs   av.it.:   8.8
      thresh= 3.321E-06 alpha_mix =  0.700 |ddv_scf|^2 =  2.622E-11

      iter #   5 total cpu time :   151.9 secs   av.it.:   8.4
      thresh= 5.121E-07 alpha_mix =  0.700 |ddv_scf|^2 =  8.204E-14

      iter #   6 total cpu time :   152.5 secs   av.it.:   8.2
      thresh= 2.864E-08 alpha_mix =  0.700 |ddv_scf|^2 =  1.452E-15

      iter #   7 total cpu time :   153.1 secs   av.it.:   8.9
      thresh= 3.811E-09 alpha_mix =  0.700 |ddv_scf|^2 =  9.976E-17

     End of self-consistent calculation

     Convergence has been achieved 


     Representation #   2 modes #   3   4

     Self-consistent Calculation

      iter #   1 total cpu time :   153.7 secs   av.it.:   5.6
      thresh= 1.000E-02 alpha_mix =  0.700 |ddv_scf|^2 =  2.970E-06

      iter #   2 total cpu time :   154.4 secs   av.it.:   9.1
      thresh= 1.723E-04 alpha_mix =  0.700 |ddv_scf|^2 =  2.060E-06

      iter #   3 total cpu time :   155.0 secs   av.it.:   8.6
      thresh= 1.435E-04 alpha_mix =  0.700 |ddv_scf|^2 =  1.992E-10

      iter #   4 total cpu time :   155.6 secs   av.it.:   8.6
      thresh= 1.411E-06 alpha_mix =  0.700 |ddv_scf|^2 =  1.285E-11

      iter #   5 total cpu time :   156.2 secs   av.it.:   8.6
      thresh= 3.585E-07 alpha_mix =  0.700 |ddv_scf|^2 =  1.932E-14

      iter #   6 total cpu time :   157.0 secs   av.it.:   9.2
      thresh= 1.390E-08 alpha_mix =  0.700 |ddv_scf|^2 =  2.311E-16

      iter #   7 total cpu time :   157.6 secs   av.it.:   9.1
      thresh= 1.520E-09 alpha_mix =  0.700 |ddv_scf|^2 =  8.903E-18

     End of self-consistent calculation

     Convergence has been achieved 


     Representation #   3 modes #   5   6

     Self-consistent Calculation

      iter #   1 total cpu time :   158.3 secs   av.it.:   5.7
      thresh= 1.000E-02 alpha_mix =  0.700 |ddv_scf|^2 =  3.595E-06

      iter #   2 total cpu time :   159.1 secs   av.it.:   9.2
      thresh= 1.896E-04 alpha_mix =  0.700 |ddv_scf|^2 =  2.561E-06

      iter #   3 total cpu time :   159.7 secs   av.it.:   8.6
      thresh= 1.600E-04 alpha_mix =  0.700 |ddv_scf|^2 =  1.766E-10

      iter #   4 total cpu time :   160.4 secs   av.it.:   8.8
      thresh= 1.329E-06 alpha_mix =  0.700 |ddv_scf|^2 =  2.129E-11

      iter #   5 total cpu time :   161.2 secs   av.it.:   8.6
      thresh= 4.614E-07 alpha_mix =  0.700 |ddv_scf|^2 =  1.031E-14

      iter #   6 total cpu time :   161.8 secs   av.it.:   9.2
      thresh= 1.015E-08 alpha_mix =  0.700 |ddv_scf|^2 =  2.046E-16

      iter #   7 total cpu time :   162.4 secs   av.it.:   9.2
      thresh= 1.430E-09 alpha_mix =  0.700 |ddv_scf|^2 =  8.741E-18

     End of self-consistent calculation

     Convergence has been achieved 

     Number of q in the star =    6
     List of q in the star:
          1  -0.500000000  -1.000000000   0.000000000
          2   0.000000000   1.000000000   0.500000000
          3   0.000000000  -1.000000000  -0.500000000
          4   0.500000000   1.000000000   0.000000000
          5  -1.000000000  -0.500000000   0.000000000
          6   0.000000000  -0.500000000  -1.000000000

     Diagonalizing the dynamical matrix

     q = (   -0.500000000  -1.000000000   0.000000000 ) 

 **************************************************************************
     freq (    1) =       6.405687 [THz] =     213.670717 [cm-1]
     freq (    2) =       6.405687 [THz] =     213.670717 [cm-1]
     freq (    3) =      10.156571 [THz] =     338.786750 [cm-1]
     freq (    4) =      10.156571 [THz] =     338.786750 [cm-1]
     freq (    5) =      13.075400 [THz] =     436.148396 [cm-1]
     freq (    6) =      13.075400 [THz] =     436.148396 [cm-1]
 **************************************************************************

     init_run     :      0.12s CPU      0.14s WALL (       7 calls)
     electrons    :      4.85s CPU      6.34s WALL (       7 calls)

     Called by init_run:
     wfcinit      :      0.00s CPU      0.00s WALL (       7 calls)
     potinit      :      0.01s CPU      0.01s WALL (       7 calls)
     hinit0       :      0.08s CPU      0.10s WALL (       7 calls)

     Called by electrons:
     c_bands      :      4.85s CPU      6.33s WALL (       7 calls)
     v_of_rho     :      0.00s CPU      0.00s WALL (       8 calls)

     Called by c_bands:
     init_us_2    :      0.20s CPU      0.26s WALL (    7338 calls)
     cegterg      :      4.07s CPU      5.22s WALL (     292 calls)

     Called by *egterg:
     cdiaghg      :      0.16s CPU      0.19s WALL (    3114 calls)
     h_psi        :     80.30s CPU    108.27s WALL (   74596 calls)
     g_psi        :      0.01s CPU      0.01s WALL (    2822 calls)

     Called by h_psi:
     h_psi:calbec :      6.68s CPU      9.87s WALL (   74596 calls)
     vloc_psi     :     72.32s CPU     96.80s WALL (   74596 calls)
     add_vuspsi   :      0.76s CPU      0.93s WALL (   74596 calls)

     General routines
     calbec       :      9.85s CPU     14.54s WALL (  151046 calls)
     fft          :      1.05s CPU      1.34s WALL (    1145 calls)
     ffts         :      0.22s CPU      0.30s WALL (    1164 calls)
     fftw         :     86.19s CPU    116.09s WALL (  657456 calls)
     davcio       :      0.74s CPU      0.99s WALL (   37601 calls)

     Parallel routines

     PHONON       :   1m58.94s CPU   2m42.40s WALL

     INITIALIZATION: 
     phq_setup    :      0.03s CPU      0.04s WALL (       8 calls)
     phq_init     :      0.16s CPU      0.19s WALL (       8 calls)

     phq_init     :      0.16s CPU      0.19s WALL (       8 calls)
     init_vloc    :      0.01s CPU      0.01s WALL (       8 calls)
     init_us_1    :      0.04s CPU      0.05s WALL (       8 calls)

     DYNAMICAL MATRIX:
     dynmat0      :      0.05s CPU      0.05s WALL (       8 calls)
     phqscf       :    111.04s CPU    152.13s WALL (       8 calls)
     dynmatrix    :      0.02s CPU      0.04s WALL (       8 calls)

     phqscf       :    111.04s CPU    152.13s WALL (       8 calls)
     solve_linter :    110.66s CPU    151.57s WALL (      32 calls)
     drhodv       :      0.35s CPU      0.48s WALL (      32 calls)

     dynmat0      :      0.05s CPU      0.05s WALL (       8 calls)
     dynmat_us    :      0.04s CPU      0.05s WALL (       8 calls)
     d2ionq       :      0.00s CPU      0.00s WALL (       8 calls)

     dynmat_us    :      0.04s CPU      0.05s WALL (       8 calls)

     phqscf       :    111.04s CPU    152.13s WALL (       8 calls)
     solve_linter :    110.66s CPU    151.57s WALL (      32 calls)

     solve_linter :    110.66s CPU    151.57s WALL (      32 calls)
     dvqpsi_us    :      1.48s CPU      2.00s WALL (     972 calls)
     ortho        :      0.78s CPU      1.23s WALL (    7545 calls)
     cgsolve      :     88.83s CPU    121.30s WALL (    7545 calls)
     incdrhoscf   :      7.93s CPU     10.57s WALL (    7521 calls)
     vpsifft      :      8.08s CPU     11.16s WALL (    6453 calls)
     dv_of_drho   :      1.06s CPU      1.34s WALL (     371 calls)
     mix_pot      :      0.31s CPU      0.49s WALL (     258 calls)
     psymdvscf    :      1.83s CPU      2.48s WALL (     252 calls)

     dvqpsi_us    :      1.48s CPU      2.00s WALL (     972 calls)
     dvqpsi_us_on :      0.05s CPU      0.06s WALL (     972 calls)

     cgsolve      :     88.83s CPU    121.30s WALL (    7545 calls)
     ch_psi       :     84.73s CPU    115.02s WALL (   71190 calls)

     ch_psi       :     84.73s CPU    115.02s WALL (   71190 calls)
     h_psi        :     80.30s CPU    108.27s WALL (   74596 calls)
     last         :      7.70s CPU     11.12s WALL (   71190 calls)

     h_psi        :     80.30s CPU    108.27s WALL (   74596 calls)
     add_vuspsi   :      0.76s CPU      0.93s WALL (   74596 calls)

     incdrhoscf   :      7.93s CPU     10.57s WALL (    7521 calls)


      General routines
     calbec       :      9.85s CPU     14.54s WALL (  151046 calls)
     fft          :      1.05s CPU      1.34s WALL (    1145 calls)
     ffts         :      0.22s CPU      0.30s WALL (    1164 calls)
     fftw         :     86.19s CPU    116.09s WALL (  657456 calls)
     davcio       :      0.74s CPU      0.99s WALL (   37601 calls)
     write_rec    :      0.27s CPU      0.62s WALL (     290 calls)


     PHONON       :   1m58.94s CPU   2m42.40s WALL


   This run was terminated on:  11: 2:17  19Apr2021            

=------------------------------------------------------------------------------=
   JOB DONE.
=------------------------------------------------------------------------------=
