
     Program PHONON v.5.4.0 starts on 21Jul2016 at 12:35:34 

     This program is part of the open-source Quantum ESPRESSO suite
     for quantum simulation of materials; please cite
         "P. Giannozzi et al., J. Phys.:Condens. Matter 21 395502 (2009);
          URL http://www.quantum-espresso.org", 
     in publications or presentations arising from this work. More details at
     http://www.quantum-espresso.org/quote

     Parallel version (MPI), running on     1 processors

     Reading data from directory:
     ./tmp/silicon.save

   Info: using nr1, nr2, nr3 values from input

   Info: using nr1, nr2, nr3 values from input

     IMPORTANT: XC functional enforced from input :
     Exchange-correlation      = LDA ( 1  1  0  0 0 0)
     Any further DFT definition will be discarded
     Please, verify this is what you really want


     G-vector sticks info
     --------------------
     sticks:   dense  smooth     PW     G-vecs:    dense   smooth      PW
     Sum         349     349    109                 4279     4279     749



     Dynamical matrices for ( 4, 4, 4)  uniform grid of q-points
     (   8q-points):
       N         xq(1)         xq(2)         xq(3) 
       1   0.000000000   0.000000000   0.000000000
       2  -0.250000000   0.250000000  -0.250000000
       3   0.500000000  -0.500000000   0.500000000
       4   0.000000000   0.500000000   0.000000000
       5   0.750000000  -0.250000000   0.750000000
       6   0.500000000   0.000000000   0.500000000
       7   0.000000000  -1.000000000   0.000000000
       8  -0.500000000  -1.000000000   0.000000000

     Calculation of q =    0.0000000   0.0000000   0.0000000

                                                                                

     bravais-lattice index     =            2
     lattice parameter (alat)  =      10.2000  a.u.
     unit-cell volume          =     265.3020 (a.u.)^3
     number of atoms/cell      =            2
     number of atomic types    =            1
     kinetic-energy cut-off    =      24.0000  Ry
     charge density cut-off    =      96.0000  Ry
     convergence threshold     =      1.0E-16
     beta                      =       0.7000
     number of iterations used =            4
     Exchange-correlation      = LDA ( 1  1  0  0 0 0)


     celldm(1)=   10.20000  celldm(2)=    0.00000  celldm(3)=    0.00000
     celldm(4)=    0.00000  celldm(5)=    0.00000  celldm(6)=    0.00000

     crystal axes: (cart. coord. in units of alat)
               a(1) = ( -0.5000  0.0000  0.5000 )  
               a(2) = (  0.0000  0.5000  0.5000 )  
               a(3) = ( -0.5000  0.5000  0.0000 )  

     reciprocal axes: (cart. coord. in units 2 pi/alat)
               b(1) = ( -1.0000 -1.0000  1.0000 )  
               b(2) = (  1.0000  1.0000  1.0000 )  
               b(3) = ( -1.0000  1.0000 -1.0000 )  


     Atoms inside the unit cell: 

     Cartesian axes

     site n.  atom      mass           positions (alat units)
        1     Si  28.0860   tau(    1) = (    0.00000    0.00000    0.00000  )
        2     Si  28.0860   tau(    2) = (    0.25000    0.25000    0.25000  )

     Computing dynamical matrix for 
                    q = (   0.0000000   0.0000000   0.0000000 )

     49 Sym.Ops. (with q -> -q+G )


     G cutoff =  252.9949  (   4279 G-vectors)     FFT grid: ( 24, 24, 24)
     number of k points=     8

     PseudoPot. # 1 for Si read from file:
     ./UPF/Si.pz-rrkj.UPF
     MD5 check sum: 884b380b739b48e9cd334294cddc9a8d
     Pseudo is Norm-conserving, Zval =  4.0
     Generated using "atomic" code by A. Dal Corso (espresso distribution)
     Using radial grid of 1141 points,  2 beta functions with: 
                l(1) =   0
                l(2) =   1

     Mode symmetry, O_h (m-3m)  point group:


     Electric field:
     Dielectric constant
     Born effective charges in two ways 


     Atomic displacements:
     There are   2 irreducible representations

     Representation     1      3 modes -T_2g G_25' G_5+  To be done

     Representation     2      3 modes -T_1u G_15  G_4-  To be done



     Alpha used in Ewald sum =   1.0000
     PHONON       :     0.60s CPU         0.61s WALL


     Electric Fields Calculation

      iter #   1 total cpu time :     1.4 secs   av.it.:   5.7
      thresh= 1.000E-02 alpha_mix =  0.700 |ddv_scf|^2 =  5.774E-07

      iter #   2 total cpu time :     1.8 secs   av.it.:   9.0
      thresh= 7.598E-05 alpha_mix =  0.700 |ddv_scf|^2 =  2.534E-08

      iter #   3 total cpu time :     2.3 secs   av.it.:   9.0
      thresh= 1.592E-05 alpha_mix =  0.700 |ddv_scf|^2 =  4.455E-10

      iter #   4 total cpu time :     2.7 secs   av.it.:   9.2
      thresh= 2.111E-06 alpha_mix =  0.700 |ddv_scf|^2 =  2.293E-12

      iter #   5 total cpu time :     3.0 secs   av.it.:   8.9
      thresh= 1.514E-07 alpha_mix =  0.700 |ddv_scf|^2 =  9.316E-16

      iter #   6 total cpu time :     3.4 secs   av.it.:   9.0
      thresh= 3.052E-09 alpha_mix =  0.700 |ddv_scf|^2 =  1.363E-17

     End of electric fields calculation

          Dielectric constant in cartesian axis 

          (      24.590147362       0.000000000       0.000000000 )
          (       0.000000000      24.590147362      -0.000000000 )
          (       0.000000000      -0.000000000      24.590147362 )

          Effective charges (d Force / dE) in cartesian axis

           atom      1   Si 
      Ex  (       -1.22722       -0.00000        0.00000 )
      Ey  (        0.00000       -1.22722       -0.00000 )
      Ez  (       -0.00000       -0.00000       -1.22722 )
           atom      2   Si 
      Ex  (       -1.22722        0.00000        0.00000 )
      Ey  (        0.00000       -1.22722        0.00000 )
      Ez  (        0.00000       -0.00000       -1.22722 )

     Calling punch_plot_e
     Writing on file  drho                                                                                                                                                                                                                                                            


     Representation #  1 modes #   1  2  3

     Self-consistent Calculation

      iter #   1 total cpu time :     3.8 secs   av.it.:   4.8
      thresh= 1.000E-02 alpha_mix =  0.700 |ddv_scf|^2 =  1.089E-07

      iter #   2 total cpu time :     4.2 secs   av.it.:   8.8
      thresh= 3.300E-05 alpha_mix =  0.700 |ddv_scf|^2 =  1.825E-09

      iter #   3 total cpu time :     4.6 secs   av.it.:   8.8
      thresh= 4.272E-06 alpha_mix =  0.700 |ddv_scf|^2 =  2.616E-11

      iter #   4 total cpu time :     5.0 secs   av.it.:   8.2
      thresh= 5.114E-07 alpha_mix =  0.700 |ddv_scf|^2 =  1.908E-14

      iter #   5 total cpu time :     5.4 secs   av.it.:   9.0
      thresh= 1.381E-08 alpha_mix =  0.700 |ddv_scf|^2 =  1.569E-16

      iter #   6 total cpu time :     5.8 secs   av.it.:   8.8
      thresh= 1.253E-09 alpha_mix =  0.700 |ddv_scf|^2 =  1.914E-18

     End of self-consistent calculation

     Convergence has been achieved 


     Representation #  2 modes #   4  5  6

     Self-consistent Calculation

      iter #   1 total cpu time :     6.1 secs   av.it.:   5.1
      thresh= 1.000E-02 alpha_mix =  0.700 |ddv_scf|^2 =  8.075E-08

      iter #   2 total cpu time :     6.5 secs   av.it.:   9.4
      thresh= 2.842E-05 alpha_mix =  0.700 |ddv_scf|^2 =  3.305E-09

      iter #   3 total cpu time :     6.9 secs   av.it.:   9.3
      thresh= 5.749E-06 alpha_mix =  0.700 |ddv_scf|^2 =  3.507E-11

      iter #   4 total cpu time :     7.3 secs   av.it.:   9.2
      thresh= 5.922E-07 alpha_mix =  0.700 |ddv_scf|^2 =  8.125E-14

      iter #   5 total cpu time :     7.7 secs   av.it.:   9.5
      thresh= 2.850E-08 alpha_mix =  0.700 |ddv_scf|^2 =  1.446E-15

      iter #   6 total cpu time :     8.1 secs   av.it.:   9.3
      thresh= 3.802E-09 alpha_mix =  0.700 |ddv_scf|^2 =  5.861E-19

     End of self-consistent calculation

     Convergence has been achieved 

     Number of q in the star =    1
     List of q in the star:
          1   0.000000000   0.000000000   0.000000000

          Dielectric constant in cartesian axis 

          (      24.590147362       0.000000000       0.000000000 )
          (       0.000000000      24.590147362      -0.000000000 )
          (       0.000000000      -0.000000000      24.590147362 )

          Effective charges (d Force / dE) in cartesian axis

           atom      1   Si 
      Ex  (       -1.22722       -0.00000        0.00000 )
      Ey  (        0.00000       -1.22722       -0.00000 )
      Ez  (       -0.00000       -0.00000       -1.22722 )
           atom      2   Si 
      Ex  (       -1.22722        0.00000        0.00000 )
      Ey  (        0.00000       -1.22722        0.00000 )
      Ez  (        0.00000       -0.00000       -1.22722 )

          Effective charges (d P / du) in cartesian axis 

           atom      1   Si 
      Px  (       -1.22722       -0.00000       -0.00000 )
      Py  (       -0.00000       -1.22722       -0.00000 )
      Pz  (       -0.00000       -0.00000       -1.22722 )
           atom      2   Si 
      Px  (       -1.22722        0.00000        0.00000 )
      Py  (        0.00000       -1.22722       -0.00000 )
      Pz  (        0.00000       -0.00000       -1.22722 )

     Diagonalizing the dynamical matrix

     q = (    0.000000000   0.000000000   0.000000000 ) 

 **************************************************************************
     freq (    1) =       0.127857 [THz] =       4.264867 [cm-1]
     freq (    2) =       0.127857 [THz] =       4.264867 [cm-1]
     freq (    3) =       0.127857 [THz] =       4.264867 [cm-1]
     freq (    4) =      15.524749 [THz] =     517.849871 [cm-1]
     freq (    5) =      15.524749 [THz] =     517.849871 [cm-1]
     freq (    6) =      15.524749 [THz] =     517.849871 [cm-1]
 **************************************************************************

     Mode symmetry, O_h (m-3m)  point group:

     freq (  1 -  3) =          4.3  [cm-1]   --> T_1u G_15  G_4- I  
     freq (  4 -  6) =        517.8  [cm-1]   --> T_2g G_25' G_5+ R  

     Number of q in the star =    1
     List of q in the star:
          1   0.000000000   0.000000000   0.000000000
       Writing drho for q = (  0.000000  0.000000  0.000000) on file "drho.0_0_0"

     Calculation of q =   -0.2500000   0.2500000  -0.2500000

     G-vector sticks info
     --------------------
     sticks:   dense  smooth     PW     G-vecs:    dense   smooth      PW
     Sum         349     349    121                 4279     4279     893



     bravais-lattice index     =            2
     lattice parameter (alat)  =      10.2000  a.u.
     unit-cell volume          =     265.3020 (a.u.)^3
     number of atoms/cell      =            2
     number of atomic types    =            1
     number of electrons       =         8.00
     number of Kohn-Sham states=            4
     kinetic-energy cutoff     =      24.0000  Ry
     charge density cutoff     =      96.0000  Ry
     Exchange-correlation      = LDA ( 1  1  0  0 0 0)

     celldm(1)=  10.200000  celldm(2)=   0.000000  celldm(3)=   0.000000
     celldm(4)=   0.000000  celldm(5)=   0.000000  celldm(6)=   0.000000

     crystal axes: (cart. coord. in units of alat)
               a(1) = (  -0.500000   0.000000   0.500000 )  
               a(2) = (   0.000000   0.500000   0.500000 )  
               a(3) = (  -0.500000   0.500000   0.000000 )  

     reciprocal axes: (cart. coord. in units 2 pi/alat)
               b(1) = ( -1.000000 -1.000000  1.000000 )  
               b(2) = (  1.000000  1.000000  1.000000 )  
               b(3) = ( -1.000000  1.000000 -1.000000 )  


     PseudoPot. # 1 for Si read from file:
     ./UPF/Si.pz-rrkj.UPF
     MD5 check sum: 884b380b739b48e9cd334294cddc9a8d
     Pseudo is Norm-conserving, Zval =  4.0
     Generated using "atomic" code by A. Dal Corso (espresso distribution)
     Using radial grid of 1141 points,  2 beta functions with: 
                l(1) =   0
                l(2) =   1

     atomic species   valence    mass     pseudopotential
        Si             4.00    28.08600     Si( 1.00)

     48 Sym. Ops., with inversion, found



   Cartesian axes

     site n.     atom                  positions (alat units)
         1           Si  tau(   1) = (   0.0000000   0.0000000   0.0000000  )
         2           Si  tau(   2) = (   0.2500000   0.2500000   0.2500000  )

     number of k points=    40
                       cart. coord. in units 2pi/alat
        k(    1) = (   0.0000000   0.0000000   0.0000000), wk =   0.0312500
        k(    2) = (  -0.2500000   0.2500000  -0.2500000), wk =   0.0000000
        k(    3) = (  -0.2500000   0.2500000  -0.2500000), wk =   0.0312500
        k(    4) = (  -0.5000000   0.5000000  -0.5000000), wk =   0.0000000
        k(    5) = (   0.5000000  -0.5000000   0.5000000), wk =   0.0312500
        k(    6) = (   0.2500000  -0.2500000   0.2500000), wk =   0.0000000
        k(    7) = (   0.0000000   0.5000000   0.0000000), wk =   0.0937500
        k(    8) = (  -0.2500000   0.7500000  -0.2500000), wk =   0.0000000
        k(    9) = (   0.7500000  -0.2500000   0.7500000), wk =   0.0937500
        k(   10) = (   0.5000000   0.0000000   0.5000000), wk =   0.0000000
        k(   11) = (   0.5000000   0.0000000   0.5000000), wk =   0.0937500
        k(   12) = (   0.2500000   0.2500000   0.2500000), wk =   0.0000000
        k(   13) = (   0.0000000  -1.0000000   0.0000000), wk =   0.0937500
        k(   14) = (  -0.2500000  -0.7500000  -0.2500000), wk =   0.0000000
        k(   15) = (  -0.5000000  -1.0000000   0.0000000), wk =   0.1875000
        k(   16) = (  -0.7500000  -0.7500000  -0.2500000), wk =   0.0000000
        k(   17) = (   0.2500000  -0.2500000  -0.2500000), wk =   0.0937500
        k(   18) = (   0.0000000   0.0000000  -0.5000000), wk =   0.0000000
        k(   19) = (   0.2500000  -0.2500000   0.2500000), wk =   0.0312500
        k(   20) = (   0.0000000   0.0000000   0.0000000), wk =   0.0000000
        k(   21) = (  -0.2500000  -0.2500000  -0.2500000), wk =   0.0937500
        k(   22) = (  -0.5000000   0.0000000  -0.5000000), wk =   0.0000000
        k(   23) = (  -0.5000000   0.5000000   0.5000000), wk =   0.0937500
        k(   24) = (  -0.7500000   0.7500000   0.2500000), wk =   0.0000000
        k(   25) = (   0.0000000   0.0000000   0.5000000), wk =   0.0937500
        k(   26) = (  -0.2500000   0.2500000   0.2500000), wk =   0.0000000
        k(   27) = (  -0.7500000   0.7500000   0.2500000), wk =   0.0937500
        k(   28) = (  -1.0000000   1.0000000   0.0000000), wk =   0.0000000
        k(   29) = (  -0.7500000   0.7500000  -0.2500000), wk =   0.0937500
        k(   30) = (  -1.0000000   1.0000000  -0.5000000), wk =   0.0000000
        k(   31) = (  -0.7500000   0.2500000   0.7500000), wk =   0.1875000
        k(   32) = (  -1.0000000   0.5000000   0.5000000), wk =   0.0000000
        k(   33) = (   0.7500000   0.2500000   0.7500000), wk =   0.0937500
        k(   34) = (   0.5000000   0.5000000   0.5000000), wk =   0.0000000
        k(   35) = (   0.7500000  -0.2500000  -0.7500000), wk =   0.1875000
        k(   36) = (   0.5000000   0.0000000  -1.0000000), wk =   0.0000000
        k(   37) = (  -0.5000000   0.5000000   0.0000000), wk =   0.0937500
        k(   38) = (  -0.7500000   0.7500000  -0.2500000), wk =   0.0000000
        k(   39) = (  -0.5000000   0.0000000   0.5000000), wk =   0.1875000
        k(   40) = (  -0.7500000   0.2500000   0.2500000), wk =   0.0000000

     Dense  grid:     4279 G-vectors     FFT dimensions: (  24,  24,  24)

     Largest allocated arrays     est. size (Mb)     dimensions
        Kohn-Sham Wavefunctions         0.03 Mb     (     544,    4)
        NL pseudopotentials             0.07 Mb     (     544,    8)
        Each V/rho on FFT grid          0.21 Mb     (   13824)
        Each G-vector array             0.03 Mb     (    4279)
        G-vector shells                 0.00 Mb     (      86)
     Largest temporary arrays     est. size (Mb)     dimensions
        Auxiliary wavefunctions         0.13 Mb     (     544,   16)
        Each subspace H/S matrix        0.00 Mb     (      16,   16)
        Each <psi_i|beta_j> matrix      0.00 Mb     (       8,    4)

     The potential is recalculated from file :
     ./tmp/_ph0/silicon.save/charge-density.dat

     Starting wfc are    8 atomic wfcs

     Band Structure Calculation
     Davidson diagonalization with overlap

     ethr =  1.25E-10,  avg # of iterations =  9.8

     total cpu time spent up to now is        0.7 secs

     End of band structure calculation

          k = 0.0000 0.0000 0.0000 (   531 PWs)   bands (ev):

    -5.8298   6.2602   6.2602   6.2602

          k =-0.2500 0.2500-0.2500 (   531 PWs)   bands (ev):

    -5.0163   2.2803   5.4898   5.4898

          k =-0.2500 0.2500-0.2500 (   531 PWs)   bands (ev):

    -5.0163   2.2803   5.4898   5.4898

          k =-0.5000 0.5000-0.5000 (   544 PWs)   bands (ev):

    -3.4435  -0.8222   5.0488   5.0488

          k = 0.5000-0.5000 0.5000 (   544 PWs)   bands (ev):

    -3.4435  -0.8222   5.0488   5.0488

          k = 0.2500-0.2500 0.2500 (   531 PWs)   bands (ev):

    -5.0163   2.2803   5.4898   5.4898

          k = 0.0000 0.5000 0.0000 (   528 PWs)   bands (ev):

    -4.7302   2.7329   4.3342   4.3342

          k =-0.2500 0.7500-0.2500 (   529 PWs)   bands (ev):

    -3.0601  -0.1827   2.6418   4.0173

          k = 0.7500-0.2500 0.7500 (   529 PWs)   bands (ev):

    -3.0601  -0.1827   2.6418   4.0173

          k = 0.5000 0.0000 0.5000 (   524 PWs)   bands (ev):

    -3.7482   0.7368   2.4091   4.9135

          k = 0.5000 0.0000 0.5000 (   524 PWs)   bands (ev):

    -3.7482   0.7368   2.4091   4.9135

          k = 0.2500 0.2500 0.2500 (   531 PWs)   bands (ev):

    -5.0163   2.2803   5.4898   5.4898

          k = 0.0000-1.0000 0.0000 (   524 PWs)   bands (ev):

    -1.6182  -1.6182   3.3581   3.3581

          k =-0.2500-0.7500-0.2500 (   529 PWs)   bands (ev):

    -3.0601  -0.1827   2.6418   4.0173

          k =-0.5000-1.0000 0.0000 (   516 PWs)   bands (ev):

    -1.4420  -1.4420   2.3021   2.3021

          k =-0.7500-0.7500-0.2500 (   529 PWs)   bands (ev):

    -3.0601  -0.1827   2.6418   4.0173

          k = 0.2500-0.2500-0.2500 (   531 PWs)   bands (ev):

    -5.0163   2.2803   5.4898   5.4898

          k = 0.0000 0.0000-0.5000 (   528 PWs)   bands (ev):

    -4.7302   2.7329   4.3342   4.3342

          k = 0.2500-0.2500 0.2500 (   531 PWs)   bands (ev):

    -5.0163   2.2803   5.4898   5.4898

          k = 0.0000 0.0000 0.0000 (   531 PWs)   bands (ev):

    -5.8298   6.2602   6.2602   6.2602

          k =-0.2500-0.2500-0.2500 (   531 PWs)   bands (ev):

    -5.0163   2.2803   5.4898   5.4898

          k =-0.5000 0.0000-0.5000 (   524 PWs)   bands (ev):

    -3.7482   0.7368   2.4091   4.9135

          k =-0.5000 0.5000 0.5000 (   544 PWs)   bands (ev):

    -3.4435  -0.8222   5.0488   5.0488

          k =-0.7500 0.7500 0.2500 (   529 PWs)   bands (ev):

    -3.0601  -0.1827   2.6418   4.0173

          k = 0.0000 0.0000 0.5000 (   528 PWs)   bands (ev):

    -4.7302   2.7329   4.3342   4.3342

          k =-0.2500 0.2500 0.2500 (   531 PWs)   bands (ev):

    -5.0163   2.2803   5.4898   5.4898

          k =-0.7500 0.7500 0.2500 (   529 PWs)   bands (ev):

    -3.0601  -0.1827   2.6418   4.0173

          k =-1.0000 1.0000 0.0000 (   524 PWs)   bands (ev):

    -1.6182  -1.6182   3.3581   3.3581

          k =-0.7500 0.7500-0.2500 (   529 PWs)   bands (ev):

    -3.0601  -0.1827   2.6418   4.0173

          k =-1.0000 1.0000-0.5000 (   528 PWs)   bands (ev):

    -4.7302   2.7329   4.3342   4.3342

          k =-0.7500 0.2500 0.7500 (   529 PWs)   bands (ev):

    -3.0601  -0.1827   2.6418   4.0173

          k =-1.0000 0.5000 0.5000 (   524 PWs)   bands (ev):

    -3.7482   0.7368   2.4091   4.9135

          k = 0.7500 0.2500 0.7500 (   529 PWs)   bands (ev):

    -3.0601  -0.1827   2.6418   4.0173

          k = 0.5000 0.5000 0.5000 (   544 PWs)   bands (ev):

    -3.4435  -0.8222   5.0488   5.0488

          k = 0.7500-0.2500-0.7500 (   529 PWs)   bands (ev):

    -3.0601  -0.1827   2.6418   4.0173

          k = 0.5000 0.0000-1.0000 (   516 PWs)   bands (ev):

    -1.4420  -1.4420   2.3021   2.3021

          k =-0.5000 0.5000 0.0000 (   524 PWs)   bands (ev):

    -3.7482   0.7368   2.4091   4.9135

          k =-0.7500 0.7500-0.2500 (   529 PWs)   bands (ev):

    -3.0601  -0.1827   2.6418   4.0173

          k =-0.5000 0.0000 0.5000 (   524 PWs)   bands (ev):

    -3.7482   0.7368   2.4091   4.9135

          k =-0.7500 0.2500 0.2500 (   529 PWs)   bands (ev):

    -3.0601  -0.1827   2.6418   4.0173

     highest occupied level (ev):     6.2602

     Writing output data file silicon.save

                                                                                

     bravais-lattice index     =            2
     lattice parameter (alat)  =      10.2000  a.u.
     unit-cell volume          =     265.3020 (a.u.)^3
     number of atoms/cell      =            2
     number of atomic types    =            1
     kinetic-energy cut-off    =      24.0000  Ry
     charge density cut-off    =      96.0000  Ry
     convergence threshold     =      1.0E-16
     beta                      =       0.7000
     number of iterations used =            4
     Exchange-correlation      = LDA ( 1  1  0  0 0 0)


     celldm(1)=   10.20000  celldm(2)=    0.00000  celldm(3)=    0.00000
     celldm(4)=    0.00000  celldm(5)=    0.00000  celldm(6)=    0.00000

     crystal axes: (cart. coord. in units of alat)
               a(1) = ( -0.5000  0.0000  0.5000 )  
               a(2) = (  0.0000  0.5000  0.5000 )  
               a(3) = ( -0.5000  0.5000  0.0000 )  

     reciprocal axes: (cart. coord. in units 2 pi/alat)
               b(1) = ( -1.0000 -1.0000  1.0000 )  
               b(2) = (  1.0000  1.0000  1.0000 )  
               b(3) = ( -1.0000  1.0000 -1.0000 )  


     Atoms inside the unit cell: 

     Cartesian axes

     site n.  atom      mass           positions (alat units)
        1     Si  28.0860   tau(    1) = (    0.00000    0.00000    0.00000  )
        2     Si  28.0860   tau(    2) = (    0.25000    0.25000    0.25000  )

     Computing dynamical matrix for 
                    q = (  -0.2500000   0.2500000  -0.2500000 )

      6 Sym.Ops. (no q -> -q+G )


     G cutoff =  252.9949  (   4279 G-vectors)     FFT grid: ( 24, 24, 24)
     number of k points=    40

     PseudoPot. # 1 for Si read from file:
     ./UPF/Si.pz-rrkj.UPF
     MD5 check sum: 884b380b739b48e9cd334294cddc9a8d
     Pseudo is Norm-conserving, Zval =  4.0
     Generated using "atomic" code by A. Dal Corso (espresso distribution)
     Using radial grid of 1141 points,  2 beta functions with: 
                l(1) =   0
                l(2) =   1

     Mode symmetry, C_3v (3m)   point group:


     Atomic displacements:
     There are   4 irreducible representations

     Representation     1      1 modes -A_1  L_1  To be done

     Representation     2      1 modes -A_1  L_1  To be done

     Representation     3      2 modes -E    L_3  To be done

     Representation     4      2 modes -E    L_3  To be done



     Alpha used in Ewald sum =   1.0000
     PHONON       :     9.20s CPU         9.35s WALL



     Representation #  1 mode #   1

     Self-consistent Calculation

      iter #   1 total cpu time :     9.6 secs   av.it.:   5.9
      thresh= 1.000E-02 alpha_mix =  0.700 |ddv_scf|^2 =  1.456E-03

      iter #   2 total cpu time :     9.9 secs   av.it.:   7.8
      thresh= 3.816E-03 alpha_mix =  0.700 |ddv_scf|^2 =  2.086E-02

      iter #   3 total cpu time :    10.1 secs   av.it.:   6.5
      thresh= 1.000E-02 alpha_mix =  0.700 |ddv_scf|^2 =  1.061E-06

      iter #   4 total cpu time :    10.4 secs   av.it.:   8.1
      thresh= 1.030E-04 alpha_mix =  0.700 |ddv_scf|^2 =  9.233E-08

      iter #   5 total cpu time :    10.6 secs   av.it.:   7.7
      thresh= 3.039E-05 alpha_mix =  0.700 |ddv_scf|^2 =  4.704E-10

      iter #   6 total cpu time :    10.9 secs   av.it.:   7.8
      thresh= 2.169E-06 alpha_mix =  0.700 |ddv_scf|^2 =  5.494E-11

      iter #   7 total cpu time :    11.2 secs   av.it.:   7.7
      thresh= 7.412E-07 alpha_mix =  0.700 |ddv_scf|^2 =  1.743E-10

      iter #   8 total cpu time :    11.4 secs   av.it.:   6.7
      thresh= 1.320E-06 alpha_mix =  0.700 |ddv_scf|^2 =  4.741E-13

      iter #   9 total cpu time :    11.7 secs   av.it.:   7.2
      thresh= 6.885E-08 alpha_mix =  0.700 |ddv_scf|^2 =  7.542E-15

      iter #  10 total cpu time :    11.9 secs   av.it.:   8.2
      thresh= 8.684E-09 alpha_mix =  0.700 |ddv_scf|^2 =  7.697E-15

      iter #  11 total cpu time :    12.2 secs   av.it.:   7.4
      thresh= 8.773E-09 alpha_mix =  0.700 |ddv_scf|^2 =  7.515E-17

     End of self-consistent calculation

     Convergence has been achieved 


     Representation #  2 mode #   2

     Self-consistent Calculation

      iter #   1 total cpu time :    12.4 secs   av.it.:   5.9
      thresh= 1.000E-02 alpha_mix =  0.700 |ddv_scf|^2 =  1.456E-03

      iter #   2 total cpu time :    12.7 secs   av.it.:   7.7
      thresh= 3.816E-03 alpha_mix =  0.700 |ddv_scf|^2 =  2.087E-02

      iter #   3 total cpu time :    12.9 secs   av.it.:   6.5
      thresh= 1.000E-02 alpha_mix =  0.700 |ddv_scf|^2 =  1.064E-06

      iter #   4 total cpu time :    13.2 secs   av.it.:   8.1
      thresh= 1.031E-04 alpha_mix =  0.700 |ddv_scf|^2 =  9.276E-08

      iter #   5 total cpu time :    13.5 secs   av.it.:   7.7
      thresh= 3.046E-05 alpha_mix =  0.700 |ddv_scf|^2 =  6.704E-10

      iter #   6 total cpu time :    13.7 secs   av.it.:   7.7
      thresh= 2.589E-06 alpha_mix =  0.700 |ddv_scf|^2 =  9.132E-10

      iter #   7 total cpu time :    14.0 secs   av.it.:   6.6
      thresh= 3.022E-06 alpha_mix =  0.700 |ddv_scf|^2 =  2.768E-11

      iter #   8 total cpu time :    14.2 secs   av.it.:   7.5
      thresh= 5.261E-07 alpha_mix =  0.700 |ddv_scf|^2 =  4.346E-13

      iter #   9 total cpu time :    14.5 secs   av.it.:   7.3
      thresh= 6.592E-08 alpha_mix =  0.700 |ddv_scf|^2 =  8.339E-15

      iter #  10 total cpu time :    14.8 secs   av.it.:   8.1
      thresh= 9.132E-09 alpha_mix =  0.700 |ddv_scf|^2 =  7.941E-15

      iter #  11 total cpu time :    15.0 secs   av.it.:   7.4
      thresh= 8.911E-09 alpha_mix =  0.700 |ddv_scf|^2 =  8.132E-17

     End of self-consistent calculation

     Convergence has been achieved 


     Representation #  3 modes #   3  4

     Self-consistent Calculation

      iter #   1 total cpu time :    15.5 secs   av.it.:   5.3
      thresh= 1.000E-02 alpha_mix =  0.700 |ddv_scf|^2 =  3.065E-07

      iter #   2 total cpu time :    16.1 secs   av.it.:   9.6
      thresh= 5.536E-05 alpha_mix =  0.700 |ddv_scf|^2 =  1.830E-08

      iter #   3 total cpu time :    16.7 secs   av.it.:   9.3
      thresh= 1.353E-05 alpha_mix =  0.700 |ddv_scf|^2 =  1.002E-10

      iter #   4 total cpu time :    17.3 secs   av.it.:   9.3
      thresh= 1.001E-06 alpha_mix =  0.700 |ddv_scf|^2 =  6.089E-12

      iter #   5 total cpu time :    18.0 secs   av.it.:   9.2
      thresh= 2.468E-07 alpha_mix =  0.700 |ddv_scf|^2 =  1.107E-14

      iter #   6 total cpu time :    18.6 secs   av.it.:   9.6
      thresh= 1.052E-08 alpha_mix =  0.700 |ddv_scf|^2 =  1.827E-16

      iter #   7 total cpu time :    19.2 secs   av.it.:   9.8
      thresh= 1.352E-09 alpha_mix =  0.700 |ddv_scf|^2 =  1.058E-18

     End of self-consistent calculation

     Convergence has been achieved 


     Representation #  4 modes #   5  6

     Self-consistent Calculation

      iter #   1 total cpu time :    19.7 secs   av.it.:   5.4
      thresh= 1.000E-02 alpha_mix =  0.700 |ddv_scf|^2 =  3.063E-07

      iter #   2 total cpu time :    20.3 secs   av.it.:   9.7
      thresh= 5.534E-05 alpha_mix =  0.700 |ddv_scf|^2 =  1.821E-08

      iter #   3 total cpu time :    20.9 secs   av.it.:   9.4
      thresh= 1.350E-05 alpha_mix =  0.700 |ddv_scf|^2 =  1.005E-10

      iter #   4 total cpu time :    21.5 secs   av.it.:   9.2
      thresh= 1.002E-06 alpha_mix =  0.700 |ddv_scf|^2 =  6.082E-12

      iter #   5 total cpu time :    22.1 secs   av.it.:   9.2
      thresh= 2.466E-07 alpha_mix =  0.700 |ddv_scf|^2 =  1.120E-14

      iter #   6 total cpu time :    22.7 secs   av.it.:   9.7
      thresh= 1.058E-08 alpha_mix =  0.700 |ddv_scf|^2 =  1.847E-16

      iter #   7 total cpu time :    23.4 secs   av.it.:   9.8
      thresh= 1.359E-09 alpha_mix =  0.700 |ddv_scf|^2 =  1.041E-18

     End of self-consistent calculation

     Convergence has been achieved 

     Number of q in the star =    8
     List of q in the star:
          1  -0.250000000   0.250000000  -0.250000000
          2   0.250000000  -0.250000000  -0.250000000
          3   0.250000000  -0.250000000   0.250000000
          4   0.250000000   0.250000000   0.250000000
          5  -0.250000000  -0.250000000  -0.250000000
          6  -0.250000000  -0.250000000   0.250000000
          7  -0.250000000   0.250000000   0.250000000
          8   0.250000000   0.250000000  -0.250000000

     Diagonalizing the dynamical matrix

     q = (   -0.250000000   0.250000000  -0.250000000 ) 

 **************************************************************************
     freq (    1) =       2.780947 [THz] =      92.762409 [cm-1]
     freq (    2) =       2.780947 [THz] =      92.762409 [cm-1]
     freq (    3) =       6.848902 [THz] =     228.454791 [cm-1]
     freq (    4) =      14.655982 [THz] =     488.870953 [cm-1]
     freq (    5) =      14.865620 [THz] =     495.863722 [cm-1]
     freq (    6) =      14.865620 [THz] =     495.863722 [cm-1]
 **************************************************************************

     Mode symmetry, C_3v (3m)   point group:

     freq (  1 -  2) =         92.8  [cm-1]   --> E    L_3           
     freq (  3 -  3) =        228.5  [cm-1]   --> A_1  L_1           
     freq (  4 -  4) =        488.9  [cm-1]   --> A_1  L_1           
     freq (  5 -  6) =        495.9  [cm-1]   --> E    L_3           

     Number of q in the star =    8
     List of q in the star:
          1  -0.250000000   0.250000000  -0.250000000
          2   0.250000000  -0.250000000  -0.250000000
          3   0.250000000  -0.250000000   0.250000000
          4   0.250000000   0.250000000   0.250000000
          5  -0.250000000  -0.250000000  -0.250000000
          6  -0.250000000  -0.250000000   0.250000000
          7  -0.250000000   0.250000000   0.250000000
          8   0.250000000   0.250000000  -0.250000000
       Writing drho for q = ( -0.250000  0.250000 -0.250000) on file "drho.0_0_1o4"
       Writing drho for q = (  0.250000 -0.250000 -0.250000) on file "drho.-1o4_-1o4_-1o4"
       Writing drho for q = (  0.250000 -0.250000  0.250000) on file "drho.0_0_-1o4"
       Writing drho for q = (  0.250000  0.250000  0.250000) on file "drho.0_1o4_0"
       Writing drho for q = ( -0.250000 -0.250000 -0.250000) on file "drho.0_-1o4_0"
       Writing drho for q = ( -0.250000 -0.250000  0.250000) on file "drho.1o4_0_0"
       Writing drho for q = ( -0.250000  0.250000  0.250000) on file "drho.1o4_1o4_1o4"
       Writing drho for q = (  0.250000  0.250000 -0.250000) on file "drho.-1o4_0_0"

     Calculation of q =    0.5000000  -0.5000000   0.5000000

     G-vector sticks info
     --------------------
     sticks:   dense  smooth     PW     G-vecs:    dense   smooth      PW
     Sum         349     349    127                 4279     4279     965



     bravais-lattice index     =            2
     lattice parameter (alat)  =      10.2000  a.u.
     unit-cell volume          =     265.3020 (a.u.)^3
     number of atoms/cell      =            2
     number of atomic types    =            1
     number of electrons       =         8.00
     number of Kohn-Sham states=            4
     kinetic-energy cutoff     =      24.0000  Ry
     charge density cutoff     =      96.0000  Ry
     Exchange-correlation      = LDA ( 1  1  0  0 0 0)

     celldm(1)=  10.200000  celldm(2)=   0.000000  celldm(3)=   0.000000
     celldm(4)=   0.000000  celldm(5)=   0.000000  celldm(6)=   0.000000

     crystal axes: (cart. coord. in units of alat)
               a(1) = (  -0.500000   0.000000   0.500000 )  
               a(2) = (   0.000000   0.500000   0.500000 )  
               a(3) = (  -0.500000   0.500000   0.000000 )  

     reciprocal axes: (cart. coord. in units 2 pi/alat)
               b(1) = ( -1.000000 -1.000000  1.000000 )  
               b(2) = (  1.000000  1.000000  1.000000 )  
               b(3) = ( -1.000000  1.000000 -1.000000 )  


     PseudoPot. # 1 for Si read from file:
     ./UPF/Si.pz-rrkj.UPF
     MD5 check sum: 884b380b739b48e9cd334294cddc9a8d
     Pseudo is Norm-conserving, Zval =  4.0
     Generated using "atomic" code by A. Dal Corso (espresso distribution)
     Using radial grid of 1141 points,  2 beta functions with: 
                l(1) =   0
                l(2) =   1

     atomic species   valence    mass     pseudopotential
        Si             4.00    28.08600     Si( 1.00)

     48 Sym. Ops., with inversion, found



   Cartesian axes

     site n.     atom                  positions (alat units)
         1           Si  tau(   1) = (   0.0000000   0.0000000   0.0000000  )
         2           Si  tau(   2) = (   0.2500000   0.2500000   0.2500000  )

     number of k points=    26
                       cart. coord. in units 2pi/alat
        k(    1) = (   0.0000000   0.0000000   0.0000000), wk =   0.0312500
        k(    2) = (   0.5000000  -0.5000000   0.5000000), wk =   0.0000000
        k(    3) = (  -0.2500000   0.2500000  -0.2500000), wk =   0.0625000
        k(    4) = (   0.2500000  -0.2500000   0.2500000), wk =   0.0000000
        k(    5) = (   0.5000000  -0.5000000   0.5000000), wk =   0.0312500
        k(    6) = (   1.0000000  -1.0000000   1.0000000), wk =   0.0000000
        k(    7) = (   0.0000000   0.5000000   0.0000000), wk =   0.1875000
        k(    8) = (   0.5000000   0.0000000   0.5000000), wk =   0.0000000
        k(    9) = (   0.7500000  -0.2500000   0.7500000), wk =   0.1875000
        k(   10) = (   1.2500000  -0.7500000   1.2500000), wk =   0.0000000
        k(   11) = (   0.5000000   0.0000000   0.5000000), wk =   0.1875000
        k(   12) = (   1.0000000  -0.5000000   1.0000000), wk =   0.0000000
        k(   13) = (   0.0000000  -1.0000000   0.0000000), wk =   0.0937500
        k(   14) = (   0.5000000  -1.5000000   0.5000000), wk =   0.0000000
        k(   15) = (  -0.5000000  -1.0000000   0.0000000), wk =   0.1875000
        k(   16) = (   0.0000000  -1.5000000   0.5000000), wk =   0.0000000
        k(   17) = (  -0.2500000  -0.2500000  -0.2500000), wk =   0.1875000
        k(   18) = (   0.2500000  -0.7500000   0.2500000), wk =   0.0000000
        k(   19) = (   0.5000000   0.5000000   0.5000000), wk =   0.0937500
        k(   20) = (   1.0000000   0.0000000   1.0000000), wk =   0.0000000
        k(   21) = (   0.7500000   0.2500000   0.7500000), wk =   0.1875000
        k(   22) = (   1.2500000  -0.2500000   1.2500000), wk =   0.0000000
        k(   23) = (  -0.7500000   0.2500000   0.7500000), wk =   0.3750000
        k(   24) = (  -0.2500000  -0.2500000   1.2500000), wk =   0.0000000
        k(   25) = (  -0.5000000   0.0000000   0.5000000), wk =   0.1875000
        k(   26) = (   0.0000000  -0.5000000   1.0000000), wk =   0.0000000

     Dense  grid:     4279 G-vectors     FFT dimensions: (  24,  24,  24)

     Largest allocated arrays     est. size (Mb)     dimensions
        Kohn-Sham Wavefunctions         0.03 Mb     (     544,    4)
        NL pseudopotentials             0.07 Mb     (     544,    8)
        Each V/rho on FFT grid          0.21 Mb     (   13824)
        Each G-vector array             0.03 Mb     (    4279)
        G-vector shells                 0.00 Mb     (      86)
     Largest temporary arrays     est. size (Mb)     dimensions
        Auxiliary wavefunctions         0.13 Mb     (     544,   16)
        Each subspace H/S matrix        0.00 Mb     (      16,   16)
        Each <psi_i|beta_j> matrix      0.00 Mb     (       8,    4)

     The potential is recalculated from file :
     ./tmp/_ph0/silicon.save/charge-density.dat

     Starting wfc are    8 atomic wfcs

     Band Structure Calculation
     Davidson diagonalization with overlap

     ethr =  1.25E-10,  avg # of iterations =  9.5

     total cpu time spent up to now is        1.3 secs

     End of band structure calculation

          k = 0.0000 0.0000 0.0000 (   531 PWs)   bands (ev):

    -5.8298   6.2602   6.2602   6.2602

          k = 0.5000-0.5000 0.5000 (   544 PWs)   bands (ev):

    -3.4435  -0.8222   5.0488   5.0488

          k =-0.2500 0.2500-0.2500 (   531 PWs)   bands (ev):

    -5.0163   2.2803   5.4898   5.4898

          k = 0.2500-0.2500 0.2500 (   531 PWs)   bands (ev):

    -5.0163   2.2803   5.4898   5.4898

          k = 0.5000-0.5000 0.5000 (   544 PWs)   bands (ev):

    -3.4435  -0.8222   5.0488   5.0488

          k = 1.0000-1.0000 1.0000 (   531 PWs)   bands (ev):

    -5.8298   6.2602   6.2602   6.2602

          k = 0.0000 0.5000 0.0000 (   528 PWs)   bands (ev):

    -4.7302   2.7329   4.3342   4.3342

          k = 0.5000 0.0000 0.5000 (   524 PWs)   bands (ev):

    -3.7482   0.7368   2.4091   4.9135

          k = 0.7500-0.2500 0.7500 (   529 PWs)   bands (ev):

    -3.0601  -0.1827   2.6418   4.0173

          k = 1.2500-0.7500 1.2500 (   531 PWs)   bands (ev):

    -5.0163   2.2803   5.4898   5.4898

          k = 0.5000 0.0000 0.5000 (   524 PWs)   bands (ev):

    -3.7482   0.7368   2.4091   4.9135

          k = 1.0000-0.5000 1.0000 (   528 PWs)   bands (ev):

    -4.7302   2.7329   4.3342   4.3342

          k = 0.0000-1.0000 0.0000 (   524 PWs)   bands (ev):

    -1.6182  -1.6182   3.3581   3.3581

          k = 0.5000-1.5000 0.5000 (   544 PWs)   bands (ev):

    -3.4435  -0.8222   5.0488   5.0488

          k =-0.5000-1.0000 0.0000 (   516 PWs)   bands (ev):

    -1.4420  -1.4420   2.3021   2.3021

          k = 0.0000-1.5000 0.5000 (   524 PWs)   bands (ev):

    -3.7482   0.7368   2.4091   4.9135

          k =-0.2500-0.2500-0.2500 (   531 PWs)   bands (ev):

    -5.0163   2.2803   5.4898   5.4898

          k = 0.2500-0.7500 0.2500 (   529 PWs)   bands (ev):

    -3.0601  -0.1827   2.6418   4.0173

          k = 0.5000 0.5000 0.5000 (   544 PWs)   bands (ev):

    -3.4435  -0.8222   5.0488   5.0488

          k = 1.0000 0.0000 1.0000 (   524 PWs)   bands (ev):

    -1.6182  -1.6182   3.3581   3.3581

          k = 0.7500 0.2500 0.7500 (   529 PWs)   bands (ev):

    -3.0601  -0.1827   2.6418   4.0173

          k = 1.2500-0.2500 1.2500 (   529 PWs)   bands (ev):

    -3.0601  -0.1827   2.6418   4.0173

          k =-0.7500 0.2500 0.7500 (   529 PWs)   bands (ev):

    -3.0601  -0.1827   2.6418   4.0173

          k =-0.2500-0.2500 1.2500 (   529 PWs)   bands (ev):

    -3.0601  -0.1827   2.6418   4.0173

          k =-0.5000 0.0000 0.5000 (   524 PWs)   bands (ev):

    -3.7482   0.7368   2.4091   4.9135

          k = 0.0000-0.5000 1.0000 (   516 PWs)   bands (ev):

    -1.4420  -1.4420   2.3021   2.3021

     highest occupied level (ev):     6.2602

     Writing output data file silicon.save

                                                                                

     bravais-lattice index     =            2
     lattice parameter (alat)  =      10.2000  a.u.
     unit-cell volume          =     265.3020 (a.u.)^3
     number of atoms/cell      =            2
     number of atomic types    =            1
     kinetic-energy cut-off    =      24.0000  Ry
     charge density cut-off    =      96.0000  Ry
     convergence threshold     =      1.0E-16
     beta                      =       0.7000
     number of iterations used =            4
     Exchange-correlation      = LDA ( 1  1  0  0 0 0)


     celldm(1)=   10.20000  celldm(2)=    0.00000  celldm(3)=    0.00000
     celldm(4)=    0.00000  celldm(5)=    0.00000  celldm(6)=    0.00000

     crystal axes: (cart. coord. in units of alat)
               a(1) = ( -0.5000  0.0000  0.5000 )  
               a(2) = (  0.0000  0.5000  0.5000 )  
               a(3) = ( -0.5000  0.5000  0.0000 )  

     reciprocal axes: (cart. coord. in units 2 pi/alat)
               b(1) = ( -1.0000 -1.0000  1.0000 )  
               b(2) = (  1.0000  1.0000  1.0000 )  
               b(3) = ( -1.0000  1.0000 -1.0000 )  


     Atoms inside the unit cell: 

     Cartesian axes

     site n.  atom      mass           positions (alat units)
        1     Si  28.0860   tau(    1) = (    0.00000    0.00000    0.00000  )
        2     Si  28.0860   tau(    2) = (    0.25000    0.25000    0.25000  )

     Computing dynamical matrix for 
                    q = (   0.5000000  -0.5000000   0.5000000 )

     13 Sym.Ops. (with q -> -q+G )


     G cutoff =  252.9949  (   4279 G-vectors)     FFT grid: ( 24, 24, 24)
     number of k points=    26

     PseudoPot. # 1 for Si read from file:
     ./UPF/Si.pz-rrkj.UPF
     MD5 check sum: 884b380b739b48e9cd334294cddc9a8d
     Pseudo is Norm-conserving, Zval =  4.0
     Generated using "atomic" code by A. Dal Corso (espresso distribution)
     Using radial grid of 1141 points,  2 beta functions with: 
                l(1) =   0
                l(2) =   1


     Atomic displacements:
     There are   4 irreducible representations

     Representation     1      1 modes -  To be done

     Representation     2      1 modes -  To be done

     Representation     3      2 modes -  To be done

     Representation     4      2 modes -  To be done



     Alpha used in Ewald sum =   1.0000
     PHONON       :    23.64s CPU        24.06s WALL



     Representation #  1 mode #   1

     Self-consistent Calculation

      iter #   1 total cpu time :    24.2 secs   av.it.:   4.8
      thresh= 1.000E-02 alpha_mix =  0.700 |ddv_scf|^2 =  1.331E-05

      iter #   2 total cpu time :    24.4 secs   av.it.:   7.7
      thresh= 3.648E-04 alpha_mix =  0.700 |ddv_scf|^2 =  1.061E-05

      iter #   3 total cpu time :    24.6 secs   av.it.:   7.1
      thresh= 3.258E-04 alpha_mix =  0.700 |ddv_scf|^2 =  1.436E-09

      iter #   4 total cpu time :    24.7 secs   av.it.:   7.3
      thresh= 3.790E-06 alpha_mix =  0.700 |ddv_scf|^2 =  2.313E-11

      iter #   5 total cpu time :    24.9 secs   av.it.:   7.2
      thresh= 4.809E-07 alpha_mix =  0.700 |ddv_scf|^2 =  1.530E-13

      iter #   6 total cpu time :    25.1 secs   av.it.:   7.4
      thresh= 3.912E-08 alpha_mix =  0.700 |ddv_scf|^2 =  2.245E-15

      iter #   7 total cpu time :    25.3 secs   av.it.:   7.5
      thresh= 4.738E-09 alpha_mix =  0.700 |ddv_scf|^2 =  6.588E-18

     End of self-consistent calculation

     Convergence has been achieved 


     Representation #  2 mode #   2

     Self-consistent Calculation

      iter #   1 total cpu time :    25.4 secs   av.it.:   5.9
      thresh= 1.000E-02 alpha_mix =  0.700 |ddv_scf|^2 =  2.408E-04

      iter #   2 total cpu time :    25.6 secs   av.it.:   7.9
      thresh= 1.552E-03 alpha_mix =  0.700 |ddv_scf|^2 =  8.230E-04

      iter #   3 total cpu time :    25.8 secs   av.it.:   7.2
      thresh= 2.869E-03 alpha_mix =  0.700 |ddv_scf|^2 =  2.001E-08

      iter #   4 total cpu time :    26.0 secs   av.it.:   8.4
      thresh= 1.415E-05 alpha_mix =  0.700 |ddv_scf|^2 =  6.438E-10

      iter #   5 total cpu time :    26.2 secs   av.it.:   8.3
      thresh= 2.537E-06 alpha_mix =  0.700 |ddv_scf|^2 =  5.055E-11

      iter #   6 total cpu time :    26.3 secs   av.it.:   7.5
      thresh= 7.110E-07 alpha_mix =  0.700 |ddv_scf|^2 =  2.640E-14

      iter #   7 total cpu time :    26.5 secs   av.it.:   7.8
      thresh= 1.625E-08 alpha_mix =  0.700 |ddv_scf|^2 =  3.227E-15

      iter #   8 total cpu time :    26.7 secs   av.it.:   7.6
      thresh= 5.681E-09 alpha_mix =  0.700 |ddv_scf|^2 =  2.402E-16

      iter #   9 total cpu time :    26.9 secs   av.it.:   7.5
      thresh= 1.550E-09 alpha_mix =  0.700 |ddv_scf|^2 =  1.847E-19

     End of self-consistent calculation

     Convergence has been achieved 


     Representation #  3 modes #   3  4

     Self-consistent Calculation

      iter #   1 total cpu time :    27.2 secs   av.it.:   4.9
      thresh= 1.000E-02 alpha_mix =  0.700 |ddv_scf|^2 =  8.151E-08

      iter #   2 total cpu time :    27.6 secs   av.it.:   9.1
      thresh= 2.855E-05 alpha_mix =  0.700 |ddv_scf|^2 =  1.905E-09

      iter #   3 total cpu time :    28.0 secs   av.it.:   8.9
      thresh= 4.364E-06 alpha_mix =  0.700 |ddv_scf|^2 =  6.401E-11

      iter #   4 total cpu time :    28.4 secs   av.it.:   8.9
      thresh= 8.001E-07 alpha_mix =  0.700 |ddv_scf|^2 =  9.315E-14

      iter #   5 total cpu time :    28.8 secs   av.it.:   9.1
      thresh= 3.052E-08 alpha_mix =  0.700 |ddv_scf|^2 =  1.157E-15

      iter #   6 total cpu time :    29.2 secs   av.it.:   9.3
      thresh= 3.401E-09 alpha_mix =  0.700 |ddv_scf|^2 =  6.278E-18

     End of self-consistent calculation

     Convergence has been achieved 


     Representation #  4 modes #   5  6

     Self-consistent Calculation

      iter #   1 total cpu time :    29.5 secs   av.it.:   5.1
      thresh= 1.000E-02 alpha_mix =  0.700 |ddv_scf|^2 =  6.958E-07

      iter #   2 total cpu time :    29.9 secs   av.it.:   9.0
      thresh= 8.342E-05 alpha_mix =  0.700 |ddv_scf|^2 =  6.392E-08

      iter #   3 total cpu time :    30.3 secs   av.it.:   8.8
      thresh= 2.528E-05 alpha_mix =  0.700 |ddv_scf|^2 =  9.050E-11

      iter #   4 total cpu time :    30.6 secs   av.it.:   8.4
      thresh= 9.513E-07 alpha_mix =  0.700 |ddv_scf|^2 =  2.716E-13

      iter #   5 total cpu time :    31.0 secs   av.it.:   8.7
      thresh= 5.212E-08 alpha_mix =  0.700 |ddv_scf|^2 =  1.002E-15

      iter #   6 total cpu time :    31.4 secs   av.it.:   8.8
      thresh= 3.166E-09 alpha_mix =  0.700 |ddv_scf|^2 =  2.153E-17

     End of self-consistent calculation

     Convergence has been achieved 

     Number of q in the star =    4
     List of q in the star:
          1   0.500000000  -0.500000000   0.500000000
          2   0.500000000   0.500000000   0.500000000
          3  -0.500000000   0.500000000   0.500000000
          4   0.500000000   0.500000000  -0.500000000

     Diagonalizing the dynamical matrix

     q = (    0.500000000  -0.500000000   0.500000000 ) 

 **************************************************************************
     freq (    1) =       3.063554 [THz] =     102.189145 [cm-1]
     freq (    2) =       3.063554 [THz] =     102.189145 [cm-1]
     freq (    3) =      11.441568 [THz] =     381.649636 [cm-1]
     freq (    4) =      12.004147 [THz] =     400.415247 [cm-1]
     freq (    5) =      14.540204 [THz] =     485.008993 [cm-1]
     freq (    6) =      14.540204 [THz] =     485.008993 [cm-1]
 **************************************************************************

     Number of q in the star =    4
     List of q in the star:
          1   0.500000000  -0.500000000   0.500000000
          2   0.500000000   0.500000000   0.500000000
          3  -0.500000000   0.500000000   0.500000000
          4   0.500000000   0.500000000  -0.500000000
       Writing drho for q = (  0.500000 -0.500000  0.500000) on file "drho.0_0_-1o2"
       Writing drho for q = (  0.500000  0.500000  0.500000) on file "drho.0_1o2_0"
       Writing drho for q = ( -0.500000  0.500000  0.500000) on file "drho.1o2_1o2_1o2"
       Writing drho for q = (  0.500000  0.500000 -0.500000) on file "drho.-1o2_0_0"

     Calculation of q =    0.0000000   0.5000000   0.0000000

     G-vector sticks info
     --------------------
     sticks:   dense  smooth     PW     G-vecs:    dense   smooth      PW
     Sum         349     349    121                 4279     4279     893



     bravais-lattice index     =            2
     lattice parameter (alat)  =      10.2000  a.u.
     unit-cell volume          =     265.3020 (a.u.)^3
     number of atoms/cell      =            2
     number of atomic types    =            1
     number of electrons       =         8.00
     number of Kohn-Sham states=            4
     kinetic-energy cutoff     =      24.0000  Ry
     charge density cutoff     =      96.0000  Ry
     Exchange-correlation      = LDA ( 1  1  0  0 0 0)

     celldm(1)=  10.200000  celldm(2)=   0.000000  celldm(3)=   0.000000
     celldm(4)=   0.000000  celldm(5)=   0.000000  celldm(6)=   0.000000

     crystal axes: (cart. coord. in units of alat)
               a(1) = (  -0.500000   0.000000   0.500000 )  
               a(2) = (   0.000000   0.500000   0.500000 )  
               a(3) = (  -0.500000   0.500000   0.000000 )  

     reciprocal axes: (cart. coord. in units 2 pi/alat)
               b(1) = ( -1.000000 -1.000000  1.000000 )  
               b(2) = (  1.000000  1.000000  1.000000 )  
               b(3) = ( -1.000000  1.000000 -1.000000 )  


     PseudoPot. # 1 for Si read from file:
     ./UPF/Si.pz-rrkj.UPF
     MD5 check sum: 884b380b739b48e9cd334294cddc9a8d
     Pseudo is Norm-conserving, Zval =  4.0
     Generated using "atomic" code by A. Dal Corso (espresso distribution)
     Using radial grid of 1141 points,  2 beta functions with: 
                l(1) =   0
                l(2) =   1

     atomic species   valence    mass     pseudopotential
        Si             4.00    28.08600     Si( 1.00)

     48 Sym. Ops., with inversion, found



   Cartesian axes

     site n.     atom                  positions (alat units)
         1           Si  tau(   1) = (   0.0000000   0.0000000   0.0000000  )
         2           Si  tau(   2) = (   0.2500000   0.2500000   0.2500000  )

     number of k points=    36
                       cart. coord. in units 2pi/alat
        k(    1) = (   0.0000000   0.0000000   0.0000000), wk =   0.0312500
        k(    2) = (   0.0000000   0.5000000   0.0000000), wk =   0.0000000
        k(    3) = (  -0.2500000   0.2500000  -0.2500000), wk =   0.1250000
        k(    4) = (  -0.2500000   0.7500000  -0.2500000), wk =   0.0000000
        k(    5) = (   0.5000000  -0.5000000   0.5000000), wk =   0.1250000
        k(    6) = (   0.5000000   0.0000000   0.5000000), wk =   0.0000000
        k(    7) = (   0.0000000   0.5000000   0.0000000), wk =   0.0312500
        k(    8) = (   0.0000000   1.0000000   0.0000000), wk =   0.0000000
        k(    9) = (   0.7500000  -0.2500000   0.7500000), wk =   0.1250000
        k(   10) = (   0.7500000   0.2500000   0.7500000), wk =   0.0000000
        k(   11) = (   0.5000000   0.0000000   0.5000000), wk =   0.1250000
        k(   12) = (   0.5000000   0.5000000   0.5000000), wk =   0.0000000
        k(   13) = (   0.0000000  -1.0000000   0.0000000), wk =   0.0312500
        k(   14) = (   0.0000000  -0.5000000   0.0000000), wk =   0.0000000
        k(   15) = (  -0.5000000  -1.0000000   0.0000000), wk =   0.1250000
        k(   16) = (  -0.5000000  -0.5000000   0.0000000), wk =   0.0000000
        k(   17) = (   0.2500000  -0.2500000   0.2500000), wk =   0.1250000
        k(   18) = (   0.2500000   0.2500000   0.2500000), wk =   0.0000000
        k(   19) = (   0.0000000  -0.5000000   0.0000000), wk =   0.0312500
        k(   20) = (   0.0000000   0.0000000   0.0000000), wk =   0.0000000
        k(   21) = (   0.5000000   0.0000000   0.0000000), wk =   0.1250000
        k(   22) = (   0.5000000   0.5000000   0.0000000), wk =   0.0000000
        k(   23) = (  -0.7500000   0.2500000  -0.7500000), wk =   0.1250000
        k(   24) = (  -0.7500000   0.7500000  -0.7500000), wk =   0.0000000
        k(   25) = (  -0.2500000   0.7500000  -0.7500000), wk =   0.2500000
        k(   26) = (  -0.2500000   1.2500000  -0.7500000), wk =   0.0000000
        k(   27) = (  -0.2500000  -0.7500000  -0.7500000), wk =   0.2500000
        k(   28) = (  -0.2500000  -0.2500000  -0.7500000), wk =   0.0000000
        k(   29) = (   0.0000000   0.5000000  -0.5000000), wk =   0.1250000
        k(   30) = (   0.0000000   1.0000000  -0.5000000), wk =   0.0000000
        k(   31) = (   0.0000000  -0.5000000  -0.5000000), wk =   0.1250000
        k(   32) = (   0.0000000   0.0000000  -0.5000000), wk =   0.0000000
        k(   33) = (  -1.0000000   0.0000000   0.0000000), wk =   0.0625000
        k(   34) = (  -1.0000000   0.5000000   0.0000000), wk =   0.0000000
        k(   35) = (  -1.0000000  -0.5000000   0.0000000), wk =   0.0625000
        k(   36) = (  -1.0000000   0.0000000   0.0000000), wk =   0.0000000

     Dense  grid:     4279 G-vectors     FFT dimensions: (  24,  24,  24)

     Largest allocated arrays     est. size (Mb)     dimensions
        Kohn-Sham Wavefunctions         0.03 Mb     (     544,    4)
        NL pseudopotentials             0.07 Mb     (     544,    8)
        Each V/rho on FFT grid          0.21 Mb     (   13824)
        Each G-vector array             0.03 Mb     (    4279)
        G-vector shells                 0.00 Mb     (      86)
     Largest temporary arrays     est. size (Mb)     dimensions
        Auxiliary wavefunctions         0.13 Mb     (     544,   16)
        Each subspace H/S matrix        0.00 Mb     (      16,   16)
        Each <psi_i|beta_j> matrix      0.00 Mb     (       8,    4)

     The potential is recalculated from file :
     ./tmp/_ph0/silicon.save/charge-density.dat

     Starting wfc are    8 atomic wfcs

     Band Structure Calculation
     Davidson diagonalization with overlap

     ethr =  1.25E-10,  avg # of iterations =  9.7

     total cpu time spent up to now is        2.0 secs

     End of band structure calculation

          k = 0.0000 0.0000 0.0000 (   531 PWs)   bands (ev):

    -5.8298   6.2602   6.2602   6.2602

          k = 0.0000 0.5000 0.0000 (   528 PWs)   bands (ev):

    -4.7302   2.7329   4.3342   4.3342

          k =-0.2500 0.2500-0.2500 (   531 PWs)   bands (ev):

    -5.0163   2.2803   5.4898   5.4898

          k =-0.2500 0.7500-0.2500 (   529 PWs)   bands (ev):

    -3.0601  -0.1827   2.6418   4.0173

          k = 0.5000-0.5000 0.5000 (   544 PWs)   bands (ev):

    -3.4435  -0.8222   5.0488   5.0488

          k = 0.5000 0.0000 0.5000 (   524 PWs)   bands (ev):

    -3.7482   0.7368   2.4091   4.9135

          k = 0.0000 0.5000 0.0000 (   528 PWs)   bands (ev):

    -4.7302   2.7329   4.3342   4.3342

          k = 0.0000 1.0000 0.0000 (   524 PWs)   bands (ev):

    -1.6182  -1.6182   3.3581   3.3581

          k = 0.7500-0.2500 0.7500 (   529 PWs)   bands (ev):

    -3.0601  -0.1827   2.6418   4.0173

          k = 0.7500 0.2500 0.7500 (   529 PWs)   bands (ev):

    -3.0601  -0.1827   2.6418   4.0173

          k = 0.5000 0.0000 0.5000 (   524 PWs)   bands (ev):

    -3.7482   0.7368   2.4091   4.9135

          k = 0.5000 0.5000 0.5000 (   544 PWs)   bands (ev):

    -3.4435  -0.8222   5.0488   5.0488

          k = 0.0000-1.0000 0.0000 (   524 PWs)   bands (ev):

    -1.6182  -1.6182   3.3581   3.3581

          k = 0.0000-0.5000 0.0000 (   528 PWs)   bands (ev):

    -4.7302   2.7329   4.3342   4.3342

          k =-0.5000-1.0000 0.0000 (   516 PWs)   bands (ev):

    -1.4420  -1.4420   2.3021   2.3021

          k =-0.5000-0.5000 0.0000 (   524 PWs)   bands (ev):

    -3.7482   0.7368   2.4091   4.9135

          k = 0.2500-0.2500 0.2500 (   531 PWs)   bands (ev):

    -5.0163   2.2803   5.4898   5.4898

          k = 0.2500 0.2500 0.2500 (   531 PWs)   bands (ev):

    -5.0163   2.2803   5.4898   5.4898

          k = 0.0000-0.5000 0.0000 (   528 PWs)   bands (ev):

    -4.7302   2.7329   4.3342   4.3342

          k = 0.0000 0.0000 0.0000 (   531 PWs)   bands (ev):

    -5.8298   6.2602   6.2602   6.2602

          k = 0.5000 0.0000 0.0000 (   528 PWs)   bands (ev):

    -4.7302   2.7329   4.3342   4.3342

          k = 0.5000 0.5000 0.0000 (   524 PWs)   bands (ev):

    -3.7482   0.7368   2.4091   4.9135

          k =-0.7500 0.2500-0.7500 (   529 PWs)   bands (ev):

    -3.0601  -0.1827   2.6418   4.0173

          k =-0.7500 0.7500-0.7500 (   531 PWs)   bands (ev):

    -5.0163   2.2803   5.4898   5.4898

          k =-0.2500 0.7500-0.7500 (   529 PWs)   bands (ev):

    -3.0601  -0.1827   2.6418   4.0173

          k =-0.2500 1.2500-0.7500 (   529 PWs)   bands (ev):

    -3.0601  -0.1827   2.6418   4.0173

          k =-0.2500-0.7500-0.7500 (   529 PWs)   bands (ev):

    -3.0601  -0.1827   2.6418   4.0173

          k =-0.2500-0.2500-0.7500 (   529 PWs)   bands (ev):

    -3.0601  -0.1827   2.6418   4.0173

          k = 0.0000 0.5000-0.5000 (   524 PWs)   bands (ev):

    -3.7482   0.7368   2.4091   4.9135

          k = 0.0000 1.0000-0.5000 (   516 PWs)   bands (ev):

    -1.4420  -1.4420   2.3021   2.3021

          k = 0.0000-0.5000-0.5000 (   524 PWs)   bands (ev):

    -3.7482   0.7368   2.4091   4.9135

          k = 0.0000 0.0000-0.5000 (   528 PWs)   bands (ev):

    -4.7302   2.7329   4.3342   4.3342

          k =-1.0000 0.0000 0.0000 (   524 PWs)   bands (ev):

    -1.6182  -1.6182   3.3581   3.3581

          k =-1.0000 0.5000 0.0000 (   516 PWs)   bands (ev):

    -1.4420  -1.4420   2.3021   2.3021

          k =-1.0000-0.5000 0.0000 (   516 PWs)   bands (ev):

    -1.4420  -1.4420   2.3021   2.3021

          k =-1.0000 0.0000 0.0000 (   524 PWs)   bands (ev):

    -1.6182  -1.6182   3.3581   3.3581

     highest occupied level (ev):     6.2602

     Writing output data file silicon.save

                                                                                

     bravais-lattice index     =            2
     lattice parameter (alat)  =      10.2000  a.u.
     unit-cell volume          =     265.3020 (a.u.)^3
     number of atoms/cell      =            2
     number of atomic types    =            1
     kinetic-energy cut-off    =      24.0000  Ry
     charge density cut-off    =      96.0000  Ry
     convergence threshold     =      1.0E-16
     beta                      =       0.7000
     number of iterations used =            4
     Exchange-correlation      = LDA ( 1  1  0  0 0 0)


     celldm(1)=   10.20000  celldm(2)=    0.00000  celldm(3)=    0.00000
     celldm(4)=    0.00000  celldm(5)=    0.00000  celldm(6)=    0.00000

     crystal axes: (cart. coord. in units of alat)
               a(1) = ( -0.5000  0.0000  0.5000 )  
               a(2) = (  0.0000  0.5000  0.5000 )  
               a(3) = ( -0.5000  0.5000  0.0000 )  

     reciprocal axes: (cart. coord. in units 2 pi/alat)
               b(1) = ( -1.0000 -1.0000  1.0000 )  
               b(2) = (  1.0000  1.0000  1.0000 )  
               b(3) = ( -1.0000  1.0000 -1.0000 )  


     Atoms inside the unit cell: 

     Cartesian axes

     site n.  atom      mass           positions (alat units)
        1     Si  28.0860   tau(    1) = (    0.00000    0.00000    0.00000  )
        2     Si  28.0860   tau(    2) = (    0.25000    0.25000    0.25000  )

     Computing dynamical matrix for 
                    q = (   0.0000000   0.5000000   0.0000000 )

      8 Sym.Ops. (no q -> -q+G )


     G cutoff =  252.9949  (   4279 G-vectors)     FFT grid: ( 24, 24, 24)
     number of k points=    36

     PseudoPot. # 1 for Si read from file:
     ./UPF/Si.pz-rrkj.UPF
     MD5 check sum: 884b380b739b48e9cd334294cddc9a8d
     Pseudo is Norm-conserving, Zval =  4.0
     Generated using "atomic" code by A. Dal Corso (espresso distribution)
     Using radial grid of 1141 points,  2 beta functions with: 
                l(1) =   0
                l(2) =   1

     Mode symmetry, C_4v (4mm)  point group:


     Atomic displacements:
     There are   4 irreducible representations

     Representation     1      1 modes -A_1  G_1 D_1  To be done

     Representation     2      1 modes -B_2  G_4 D_2'  To be done

     Representation     3      2 modes -E    G_5 D_5  To be done

     Representation     4      2 modes -E    G_5 D_5  To be done



     Alpha used in Ewald sum =   1.0000
     PHONON       :    31.72s CPU        32.27s WALL



     Representation #  1 mode #   1

     Self-consistent Calculation

      iter #   1 total cpu time :    32.5 secs   av.it.:   5.7
      thresh= 1.000E-02 alpha_mix =  0.700 |ddv_scf|^2 =  1.708E-03

      iter #   2 total cpu time :    32.7 secs   av.it.:   7.5
      thresh= 4.133E-03 alpha_mix =  0.700 |ddv_scf|^2 =  2.066E-02

      iter #   3 total cpu time :    32.9 secs   av.it.:   6.4
      thresh= 1.000E-02 alpha_mix =  0.700 |ddv_scf|^2 =  1.830E-08

      iter #   4 total cpu time :    33.2 secs   av.it.:   8.3
      thresh= 1.353E-05 alpha_mix =  0.700 |ddv_scf|^2 =  1.224E-09

      iter #   5 total cpu time :    33.4 secs   av.it.:   7.9
      thresh= 3.498E-06 alpha_mix =  0.700 |ddv_scf|^2 =  2.595E-11

      iter #   6 total cpu time :    33.6 secs   av.it.:   7.3
      thresh= 5.095E-07 alpha_mix =  0.700 |ddv_scf|^2 =  7.203E-13

      iter #   7 total cpu time :    33.9 secs   av.it.:   6.6
      thresh= 8.487E-08 alpha_mix =  0.700 |ddv_scf|^2 =  4.065E-15

      iter #   8 total cpu time :    34.1 secs   av.it.:   7.2
      thresh= 6.375E-09 alpha_mix =  0.700 |ddv_scf|^2 =  4.471E-18

     End of self-consistent calculation

     Convergence has been achieved 


     Representation #  2 mode #   2

     Self-consistent Calculation

      iter #   1 total cpu time :    34.3 secs   av.it.:   5.2
      thresh= 1.000E-02 alpha_mix =  0.700 |ddv_scf|^2 =  3.225E-06

      iter #   2 total cpu time :    34.5 secs   av.it.:   8.3
      thresh= 1.796E-04 alpha_mix =  0.700 |ddv_scf|^2 =  7.135E-07

      iter #   3 total cpu time :    34.8 secs   av.it.:   8.1
      thresh= 8.447E-05 alpha_mix =  0.700 |ddv_scf|^2 =  3.294E-09

      iter #   4 total cpu time :    35.0 secs   av.it.:   8.2
      thresh= 5.739E-06 alpha_mix =  0.700 |ddv_scf|^2 =  8.523E-11

      iter #   5 total cpu time :    35.3 secs   av.it.:   7.7
      thresh= 9.232E-07 alpha_mix =  0.700 |ddv_scf|^2 =  1.355E-12

      iter #   6 total cpu time :    35.5 secs   av.it.:   7.6
      thresh= 1.164E-07 alpha_mix =  0.700 |ddv_scf|^2 =  7.269E-16

      iter #   7 total cpu time :    35.8 secs   av.it.:   8.4
      thresh= 2.696E-09 alpha_mix =  0.700 |ddv_scf|^2 =  2.131E-17

     End of self-consistent calculation

     Convergence has been achieved 


     Representation #  3 modes #   3  4

     Self-consistent Calculation

      iter #   1 total cpu time :    36.2 secs   av.it.:   5.4
      thresh= 1.000E-02 alpha_mix =  0.700 |ddv_scf|^2 =  6.665E-07

      iter #   2 total cpu time :    36.7 secs   av.it.:   9.4
      thresh= 8.164E-05 alpha_mix =  0.700 |ddv_scf|^2 =  1.113E-07

      iter #   3 total cpu time :    37.3 secs   av.it.:   8.8
      thresh= 3.337E-05 alpha_mix =  0.700 |ddv_scf|^2 =  1.290E-10

      iter #   4 total cpu time :    37.8 secs   av.it.:   8.8
      thresh= 1.136E-06 alpha_mix =  0.700 |ddv_scf|^2 =  7.851E-12

      iter #   5 total cpu time :    38.3 secs   av.it.:   8.6
      thresh= 2.802E-07 alpha_mix =  0.700 |ddv_scf|^2 =  4.069E-15

      iter #   6 total cpu time :    38.9 secs   av.it.:   9.6
      thresh= 6.379E-09 alpha_mix =  0.700 |ddv_scf|^2 =  2.045E-17

     End of self-consistent calculation

     Convergence has been achieved 


     Representation #  4 modes #   5  6

     Self-consistent Calculation

      iter #   1 total cpu time :    39.3 secs   av.it.:   5.3
      thresh= 1.000E-02 alpha_mix =  0.700 |ddv_scf|^2 =  6.020E-07

      iter #   2 total cpu time :    39.8 secs   av.it.:   9.3
      thresh= 7.759E-05 alpha_mix =  0.700 |ddv_scf|^2 =  1.016E-07

      iter #   3 total cpu time :    40.3 secs   av.it.:   8.9
      thresh= 3.187E-05 alpha_mix =  0.700 |ddv_scf|^2 =  1.228E-10

      iter #   4 total cpu time :    40.9 secs   av.it.:   8.9
      thresh= 1.108E-06 alpha_mix =  0.700 |ddv_scf|^2 =  3.515E-12

      iter #   5 total cpu time :    41.4 secs   av.it.:   8.7
      thresh= 1.875E-07 alpha_mix =  0.700 |ddv_scf|^2 =  8.865E-15

      iter #   6 total cpu time :    41.9 secs   av.it.:   9.5
      thresh= 9.415E-09 alpha_mix =  0.700 |ddv_scf|^2 =  3.221E-17

     End of self-consistent calculation

     Convergence has been achieved 

     Number of q in the star =    6
     List of q in the star:
          1   0.000000000   0.500000000   0.000000000
          2   0.000000000  -0.500000000   0.000000000
          3   0.500000000   0.000000000   0.000000000
          4   0.000000000   0.000000000   0.500000000
          5   0.000000000   0.000000000  -0.500000000
          6  -0.500000000   0.000000000   0.000000000

     Diagonalizing the dynamical matrix

     q = (    0.000000000   0.500000000   0.000000000 ) 

 **************************************************************************
     freq (    1) =       3.774064 [THz] =     125.889238 [cm-1]
     freq (    2) =       3.774064 [THz] =     125.889238 [cm-1]
     freq (    3) =       7.166843 [THz] =     239.060134 [cm-1]
     freq (    4) =      14.177460 [THz] =     472.909176 [cm-1]
     freq (    5) =      14.177460 [THz] =     472.909176 [cm-1]
     freq (    6) =      14.884767 [THz] =     496.502398 [cm-1]
 **************************************************************************

     Mode symmetry, C_4v (4mm)  point group:

     freq (  1 -  2) =        125.9  [cm-1]   --> E    G_5 D_5       
     freq (  3 -  3) =        239.1  [cm-1]   --> A_1  G_1 D_1       
     freq (  4 -  5) =        472.9  [cm-1]   --> E    G_5 D_5       
     freq (  6 -  6) =        496.5  [cm-1]   --> B_2  G_4 D_2'      

     Number of q in the star =    6
     List of q in the star:
          1   0.000000000   0.500000000   0.000000000
          2   0.000000000  -0.500000000   0.000000000
          3   0.500000000   0.000000000   0.000000000
          4   0.000000000   0.000000000   0.500000000
          5   0.000000000   0.000000000  -0.500000000
          6  -0.500000000   0.000000000   0.000000000
       Writing drho for q = (  0.000000  0.500000  0.000000) on file "drho.0_1o4_1o4"
       Writing drho for q = (  0.000000 -0.500000  0.000000) on file "drho.0_-1o4_-1o4"
       Writing drho for q = (  0.500000  0.000000  0.000000) on file "drho.-1o4_0_-1o4"
       Writing drho for q = (  0.000000  0.000000  0.500000) on file "drho.1o4_1o4_0"
       Writing drho for q = (  0.000000  0.000000 -0.500000) on file "drho.-1o4_-1o4_0"
       Writing drho for q = ( -0.500000  0.000000  0.000000) on file "drho.1o4_0_1o4"

     Calculation of q =    0.7500000  -0.2500000   0.7500000

     G-vector sticks info
     --------------------
     sticks:   dense  smooth     PW     G-vecs:    dense   smooth      PW
     Sum         349     349    139                 4279     4279    1067



     bravais-lattice index     =            2
     lattice parameter (alat)  =      10.2000  a.u.
     unit-cell volume          =     265.3020 (a.u.)^3
     number of atoms/cell      =            2
     number of atomic types    =            1
     number of electrons       =         8.00
     number of Kohn-Sham states=            4
     kinetic-energy cutoff     =      24.0000  Ry
     charge density cutoff     =      96.0000  Ry
     Exchange-correlation      = LDA ( 1  1  0  0 0 0)

     celldm(1)=  10.200000  celldm(2)=   0.000000  celldm(3)=   0.000000
     celldm(4)=   0.000000  celldm(5)=   0.000000  celldm(6)=   0.000000

     crystal axes: (cart. coord. in units of alat)
               a(1) = (  -0.500000   0.000000   0.500000 )  
               a(2) = (   0.000000   0.500000   0.500000 )  
               a(3) = (  -0.500000   0.500000   0.000000 )  

     reciprocal axes: (cart. coord. in units 2 pi/alat)
               b(1) = ( -1.000000 -1.000000  1.000000 )  
               b(2) = (  1.000000  1.000000  1.000000 )  
               b(3) = ( -1.000000  1.000000 -1.000000 )  


     PseudoPot. # 1 for Si read from file:
     ./UPF/Si.pz-rrkj.UPF
     MD5 check sum: 884b380b739b48e9cd334294cddc9a8d
     Pseudo is Norm-conserving, Zval =  4.0
     Generated using "atomic" code by A. Dal Corso (espresso distribution)
     Using radial grid of 1141 points,  2 beta functions with: 
                l(1) =   0
                l(2) =   1

     atomic species   valence    mass     pseudopotential
        Si             4.00    28.08600     Si( 1.00)

     48 Sym. Ops., with inversion, found



   Cartesian axes

     site n.     atom                  positions (alat units)
         1           Si  tau(   1) = (   0.0000000   0.0000000   0.0000000  )
         2           Si  tau(   2) = (   0.2500000   0.2500000   0.2500000  )

     number of k points=    80
                       cart. coord. in units 2pi/alat
        k(    1) = (   0.0000000   0.0000000   0.0000000), wk =   0.0312500
        k(    2) = (   0.7500000  -0.2500000   0.7500000), wk =   0.0000000
        k(    3) = (  -0.2500000   0.2500000  -0.2500000), wk =   0.0312500
        k(    4) = (   0.5000000   0.0000000   0.5000000), wk =   0.0000000
        k(    5) = (   0.5000000  -0.5000000   0.5000000), wk =   0.0312500
        k(    6) = (   1.2500000  -0.7500000   1.2500000), wk =   0.0000000
        k(    7) = (   0.0000000   0.5000000   0.0000000), wk =   0.0312500
        k(    8) = (   0.7500000   0.2500000   0.7500000), wk =   0.0000000
        k(    9) = (   0.7500000  -0.2500000   0.7500000), wk =   0.0312500
        k(   10) = (   1.5000000  -0.5000000   1.5000000), wk =   0.0000000
        k(   11) = (   0.5000000   0.0000000   0.5000000), wk =   0.0312500
        k(   12) = (   1.2500000  -0.2500000   1.2500000), wk =   0.0000000
        k(   13) = (   0.0000000  -1.0000000   0.0000000), wk =   0.0312500
        k(   14) = (   0.7500000  -1.2500000   0.7500000), wk =   0.0000000
        k(   15) = (  -0.5000000  -1.0000000   0.0000000), wk =   0.0625000
        k(   16) = (   0.2500000  -1.2500000   0.7500000), wk =   0.0000000
        k(   17) = (  -0.2500000   0.2500000   0.2500000), wk =   0.0625000
        k(   18) = (   0.5000000   0.0000000   1.0000000), wk =   0.0000000
        k(   19) = (   0.2500000   0.2500000   0.2500000), wk =   0.0312500
        k(   20) = (   1.0000000   0.0000000   1.0000000), wk =   0.0000000
        k(   21) = (   0.2500000  -0.2500000   0.2500000), wk =   0.0312500
        k(   22) = (   1.0000000  -0.5000000   1.0000000), wk =   0.0000000
        k(   23) = (  -0.2500000  -0.2500000  -0.2500000), wk =   0.0312500
        k(   24) = (   0.5000000  -0.5000000   0.5000000), wk =   0.0000000
        k(   25) = (   0.2500000  -0.2500000  -0.2500000), wk =   0.0625000
        k(   26) = (   1.0000000  -0.5000000   0.5000000), wk =   0.0000000
        k(   27) = (   0.5000000  -0.5000000  -0.5000000), wk =   0.0625000
        k(   28) = (   1.2500000  -0.7500000   0.2500000), wk =   0.0000000
        k(   29) = (  -0.5000000  -0.5000000  -0.5000000), wk =   0.0312500
        k(   30) = (   0.2500000  -0.7500000   0.2500000), wk =   0.0000000
        k(   31) = (   0.0000000  -0.5000000   0.0000000), wk =   0.0312500
        k(   32) = (   0.7500000  -0.7500000   0.7500000), wk =   0.0000000
        k(   33) = (   0.5000000   0.0000000   0.0000000), wk =   0.0625000
        k(   34) = (   1.2500000  -0.2500000   0.7500000), wk =   0.0000000
        k(   35) = (   0.0000000   0.0000000  -0.5000000), wk =   0.0625000
        k(   36) = (   0.7500000  -0.2500000   0.2500000), wk =   0.0000000
        k(   37) = (   0.7500000  -0.2500000  -0.7500000), wk =   0.0625000
        k(   38) = (   1.5000000  -0.5000000   0.0000000), wk =   0.0000000
        k(   39) = (  -0.7500000  -0.2500000  -0.7500000), wk =   0.0312500
        k(   40) = (   0.0000000  -0.5000000   0.0000000), wk =   0.0000000
        k(   41) = (  -0.7500000   0.2500000  -0.7500000), wk =   0.0312500
        k(   42) = (   0.0000000   0.0000000   0.0000000), wk =   0.0000000
        k(   43) = (  -0.2500000   0.7500000  -0.7500000), wk =   0.0625000
        k(   44) = (   0.5000000   0.5000000   0.0000000), wk =   0.0000000
        k(   45) = (   0.7500000   0.2500000   0.7500000), wk =   0.0312500
        k(   46) = (   1.5000000   0.0000000   1.5000000), wk =   0.0000000
        k(   47) = (  -0.7500000   0.2500000   0.7500000), wk =   0.0625000
        k(   48) = (   0.0000000   0.0000000   1.5000000), wk =   0.0000000
        k(   49) = (  -0.7500000   0.7500000   0.2500000), wk =   0.0625000
        k(   50) = (   0.0000000   0.5000000   1.0000000), wk =   0.0000000
        k(   51) = (  -0.2500000   0.7500000   0.7500000), wk =   0.0625000
        k(   52) = (   0.5000000   0.5000000   1.5000000), wk =   0.0000000
        k(   53) = (  -0.2500000  -0.7500000  -0.7500000), wk =   0.0625000
        k(   54) = (   0.5000000  -1.0000000   0.0000000), wk =   0.0000000
        k(   55) = (   0.7500000  -0.7500000   0.2500000), wk =   0.0625000
        k(   56) = (   1.5000000  -1.0000000   1.0000000), wk =   0.0000000
        k(   57) = (  -0.7500000  -0.7500000   0.2500000), wk =   0.0625000
        k(   58) = (   0.0000000  -1.0000000   1.0000000), wk =   0.0000000
        k(   59) = (   0.2500000   0.7500000   0.7500000), wk =   0.0625000
        k(   60) = (   1.0000000   0.5000000   1.5000000), wk =   0.0000000
        k(   61) = (  -0.2500000  -0.7500000   0.7500000), wk =   0.0625000
        k(   62) = (   0.5000000  -1.0000000   1.5000000), wk =   0.0000000
        k(   63) = (   0.5000000   0.0000000  -0.5000000), wk =   0.0625000
        k(   64) = (   1.2500000  -0.2500000   0.2500000), wk =   0.0000000
        k(   65) = (  -0.5000000   0.0000000  -0.5000000), wk =   0.0312500
        k(   66) = (   0.2500000  -0.2500000   0.2500000), wk =   0.0000000
        k(   67) = (   0.0000000   0.5000000  -0.5000000), wk =   0.0625000
        k(   68) = (   0.7500000   0.2500000   0.2500000), wk =   0.0000000
        k(   69) = (   0.0000000   0.5000000   0.5000000), wk =   0.0625000
        k(   70) = (   0.7500000   0.2500000   1.2500000), wk =   0.0000000
        k(   71) = (   0.0000000  -0.5000000  -0.5000000), wk =   0.0625000
        k(   72) = (   0.7500000  -0.7500000   0.2500000), wk =   0.0000000
        k(   73) = (   0.5000000  -0.5000000   0.0000000), wk =   0.0625000
        k(   74) = (   1.2500000  -0.7500000   0.7500000), wk =   0.0000000
        k(   75) = (  -1.0000000   0.0000000   0.0000000), wk =   0.0625000
        k(   76) = (  -0.2500000  -0.2500000   0.7500000), wk =   0.0000000
        k(   77) = (   0.5000000  -1.0000000   0.0000000), wk =   0.0625000
        k(   78) = (   1.2500000  -1.2500000   0.7500000), wk =   0.0000000
        k(   79) = (  -1.0000000  -0.5000000   0.0000000), wk =   0.0625000
        k(   80) = (  -0.2500000  -0.7500000   0.7500000), wk =   0.0000000

     Dense  grid:     4279 G-vectors     FFT dimensions: (  24,  24,  24)

     Largest allocated arrays     est. size (Mb)     dimensions
        Kohn-Sham Wavefunctions         0.03 Mb     (     544,    4)
        NL pseudopotentials             0.07 Mb     (     544,    8)
        Each V/rho on FFT grid          0.21 Mb     (   13824)
        Each G-vector array             0.03 Mb     (    4279)
        G-vector shells                 0.00 Mb     (      86)
     Largest temporary arrays     est. size (Mb)     dimensions
        Auxiliary wavefunctions         0.13 Mb     (     544,   16)
        Each subspace H/S matrix        0.00 Mb     (      16,   16)
        Each <psi_i|beta_j> matrix      0.00 Mb     (       8,    4)

     The potential is recalculated from file :
     ./tmp/_ph0/silicon.save/charge-density.dat

     Starting wfc are    8 atomic wfcs

     Band Structure Calculation
     Davidson diagonalization with overlap

     ethr =  1.25E-10,  avg # of iterations =  9.8

     total cpu time spent up to now is        3.5 secs

     End of band structure calculation

          k = 0.0000 0.0000 0.0000 (   531 PWs)   bands (ev):

    -5.8298   6.2602   6.2602   6.2602

          k = 0.7500-0.2500 0.7500 (   529 PWs)   bands (ev):

    -3.0601  -0.1827   2.6418   4.0173

          k =-0.2500 0.2500-0.2500 (   531 PWs)   bands (ev):

    -5.0163   2.2803   5.4898   5.4898

          k = 0.5000 0.0000 0.5000 (   524 PWs)   bands (ev):

    -3.7482   0.7368   2.4091   4.9135

          k = 0.5000-0.5000 0.5000 (   544 PWs)   bands (ev):

    -3.4435  -0.8222   5.0488   5.0488

          k = 1.2500-0.7500 1.2500 (   531 PWs)   bands (ev):

    -5.0163   2.2803   5.4898   5.4898

          k = 0.0000 0.5000 0.0000 (   528 PWs)   bands (ev):

    -4.7302   2.7329   4.3342   4.3342

          k = 0.7500 0.2500 0.7500 (   529 PWs)   bands (ev):

    -3.0601  -0.1827   2.6418   4.0173

          k = 0.7500-0.2500 0.7500 (   529 PWs)   bands (ev):

    -3.0601  -0.1827   2.6418   4.0173

          k = 1.5000-0.5000 1.5000 (   544 PWs)   bands (ev):

    -3.4435  -0.8222   5.0488   5.0488

          k = 0.5000 0.0000 0.5000 (   524 PWs)   bands (ev):

    -3.7482   0.7368   2.4091   4.9135

          k = 1.2500-0.2500 1.2500 (   529 PWs)   bands (ev):

    -3.0601  -0.1827   2.6418   4.0173

          k = 0.0000-1.0000 0.0000 (   524 PWs)   bands (ev):

    -1.6182  -1.6182   3.3581   3.3581

          k = 0.7500-1.2500 0.7500 (   531 PWs)   bands (ev):

    -5.0163   2.2803   5.4898   5.4898

          k =-0.5000-1.0000 0.0000 (   516 PWs)   bands (ev):

    -1.4420  -1.4420   2.3021   2.3021

          k = 0.2500-1.2500 0.7500 (   529 PWs)   bands (ev):

    -3.0601  -0.1827   2.6418   4.0173

          k =-0.2500 0.2500 0.2500 (   531 PWs)   bands (ev):

    -5.0163   2.2803   5.4898   5.4898

          k = 0.5000 0.0000 1.0000 (   516 PWs)   bands (ev):

    -1.4420  -1.4420   2.3021   2.3021

          k = 0.2500 0.2500 0.2500 (   531 PWs)   bands (ev):

    -5.0163   2.2803   5.4898   5.4898

          k = 1.0000 0.0000 1.0000 (   524 PWs)   bands (ev):

    -1.6182  -1.6182   3.3581   3.3581

          k = 0.2500-0.2500 0.2500 (   531 PWs)   bands (ev):

    -5.0163   2.2803   5.4898   5.4898

          k = 1.0000-0.5000 1.0000 (   528 PWs)   bands (ev):

    -4.7302   2.7329   4.3342   4.3342

          k =-0.2500-0.2500-0.2500 (   531 PWs)   bands (ev):

    -5.0163   2.2803   5.4898   5.4898

          k = 0.5000-0.5000 0.5000 (   544 PWs)   bands (ev):

    -3.4435  -0.8222   5.0488   5.0488

          k = 0.2500-0.2500-0.2500 (   531 PWs)   bands (ev):

    -5.0163   2.2803   5.4898   5.4898

          k = 1.0000-0.5000 0.5000 (   524 PWs)   bands (ev):

    -3.7482   0.7368   2.4091   4.9135

          k = 0.5000-0.5000-0.5000 (   544 PWs)   bands (ev):

    -3.4435  -0.8222   5.0488   5.0488

          k = 1.2500-0.7500 0.2500 (   529 PWs)   bands (ev):

    -3.0601  -0.1827   2.6418   4.0173

          k =-0.5000-0.5000-0.5000 (   544 PWs)   bands (ev):

    -3.4435  -0.8222   5.0488   5.0488

          k = 0.2500-0.7500 0.2500 (   529 PWs)   bands (ev):

    -3.0601  -0.1827   2.6418   4.0173

          k = 0.0000-0.5000 0.0000 (   528 PWs)   bands (ev):

    -4.7302   2.7329   4.3342   4.3342

          k = 0.7500-0.7500 0.7500 (   531 PWs)   bands (ev):

    -5.0163   2.2803   5.4898   5.4898

          k = 0.5000 0.0000 0.0000 (   528 PWs)   bands (ev):

    -4.7302   2.7329   4.3342   4.3342

          k = 1.2500-0.2500 0.7500 (   529 PWs)   bands (ev):

    -3.0601  -0.1827   2.6418   4.0173

          k = 0.0000 0.0000-0.5000 (   528 PWs)   bands (ev):

    -4.7302   2.7329   4.3342   4.3342

          k = 0.7500-0.2500 0.2500 (   529 PWs)   bands (ev):

    -3.0601  -0.1827   2.6418   4.0173

          k = 0.7500-0.2500-0.7500 (   529 PWs)   bands (ev):

    -3.0601  -0.1827   2.6418   4.0173

          k = 1.5000-0.5000 0.0000 (   524 PWs)   bands (ev):

    -3.7482   0.7368   2.4091   4.9135

[...]
     Using radial grid of 1141 points,  2 beta functions with: 
                l(1) =   0
                l(2) =   1

     atomic species   valence    mass     pseudopotential
        Si             4.00    28.08600     Si( 1.00)

     48 Sym. Ops., with inversion, found



   Cartesian axes

     site n.     atom                  positions (alat units)
         1           Si  tau(   1) = (   0.0000000   0.0000000   0.0000000  )
         2           Si  tau(   2) = (   0.2500000   0.2500000   0.2500000  )

     number of k points=    32
                       cart. coord. in units 2pi/alat
        k(    1) = (   0.0000000   0.0000000   0.0000000), wk =   0.0312500
        k(    2) = (  -0.5000000  -1.0000000   0.0000000), wk =   0.0000000
        k(    3) = (  -0.2500000   0.2500000  -0.2500000), wk =   0.2500000
        k(    4) = (  -0.7500000  -0.7500000  -0.2500000), wk =   0.0000000
        k(    5) = (   0.5000000  -0.5000000   0.5000000), wk =   0.1250000
        k(    6) = (   0.0000000  -1.5000000   0.5000000), wk =   0.0000000
        k(    7) = (   0.0000000   0.5000000   0.0000000), wk =   0.1250000
        k(    8) = (  -0.5000000  -0.5000000   0.0000000), wk =   0.0000000
        k(    9) = (   0.7500000  -0.2500000   0.7500000), wk =   0.2500000
        k(   10) = (   0.2500000  -1.2500000   0.7500000), wk =   0.0000000
        k(   11) = (   0.5000000   0.0000000   0.5000000), wk =   0.1250000
        k(   12) = (   0.0000000  -1.0000000   0.5000000), wk =   0.0000000
        k(   13) = (   0.0000000  -1.0000000   0.0000000), wk =   0.0625000
        k(   14) = (  -0.5000000  -2.0000000   0.0000000), wk =   0.0000000
        k(   15) = (  -0.5000000  -1.0000000   0.0000000), wk =   0.0312500
        k(   16) = (  -1.0000000  -2.0000000   0.0000000), wk =   0.0000000
        k(   17) = (   0.5000000   0.0000000   0.0000000), wk =   0.0625000
        k(   18) = (   0.0000000  -1.0000000   0.0000000), wk =   0.0000000
        k(   19) = (  -0.7500000   0.2500000  -0.7500000), wk =   0.2500000
        k(   20) = (  -1.2500000  -0.7500000  -0.7500000), wk =   0.0000000
        k(   21) = (  -0.2500000   0.7500000   0.7500000), wk =   0.2500000
        k(   22) = (  -0.7500000  -0.2500000   0.7500000), wk =   0.0000000
        k(   23) = (  -0.5000000   0.0000000  -0.5000000), wk =   0.1250000
        k(   24) = (  -1.0000000  -1.0000000  -0.5000000), wk =   0.0000000
        k(   25) = (   0.0000000   0.5000000   0.5000000), wk =   0.1250000
        k(   26) = (  -0.5000000  -0.5000000   0.5000000), wk =   0.0000000
        k(   27) = (  -1.0000000   0.0000000   0.0000000), wk =   0.0312500
        k(   28) = (  -1.5000000  -1.0000000   0.0000000), wk =   0.0000000
        k(   29) = (   0.0000000   1.0000000   0.5000000), wk =   0.1250000
        k(   30) = (  -0.5000000   0.0000000   0.5000000), wk =   0.0000000
        k(   31) = (   0.5000000   1.0000000   0.0000000), wk =   0.0312500
        k(   32) = (   0.0000000   0.0000000   0.0000000), wk =   0.0000000

     Dense  grid:     4279 G-vectors     FFT dimensions: (  24,  24,  24)

     Largest allocated arrays     est. size (Mb)     dimensions
        Kohn-Sham Wavefunctions         0.03 Mb     (     544,    4)
        NL pseudopotentials             0.07 Mb     (     544,    8)
        Each V/rho on FFT grid          0.21 Mb     (   13824)
        Each G-vector array             0.03 Mb     (    4279)
        G-vector shells                 0.00 Mb     (      86)
     Largest temporary arrays     est. size (Mb)     dimensions
        Auxiliary wavefunctions         0.13 Mb     (     544,   16)
        Each subspace H/S matrix        0.00 Mb     (      16,   16)
        Each <psi_i|beta_j> matrix      0.00 Mb     (       8,    4)

     The potential is recalculated from file :
     ./tmp/_ph0/silicon.save/charge-density.dat

     Starting wfc are    8 atomic wfcs

     Band Structure Calculation
     Davidson diagonalization with overlap

     ethr =  1.25E-10,  avg # of iterations =  9.4

     total cpu time spent up to now is        5.8 secs

     End of band structure calculation

          k = 0.0000 0.0000 0.0000 (   531 PWs)   bands (ev):

    -5.8298   6.2602   6.2602   6.2602

          k =-0.5000-1.0000 0.0000 (   516 PWs)   bands (ev):

    -1.4420  -1.4420   2.3021   2.3021

          k =-0.2500 0.2500-0.2500 (   531 PWs)   bands (ev):

    -5.0163   2.2803   5.4898   5.4898

          k =-0.7500-0.7500-0.2500 (   529 PWs)   bands (ev):

    -3.0601  -0.1827   2.6418   4.0173

          k = 0.5000-0.5000 0.5000 (   544 PWs)   bands (ev):

    -3.4435  -0.8222   5.0488   5.0488

          k = 0.0000-1.5000 0.5000 (   524 PWs)   bands (ev):

    -3.7482   0.7368   2.4091   4.9135

          k = 0.0000 0.5000 0.0000 (   528 PWs)   bands (ev):

    -4.7302   2.7329   4.3342   4.3342

          k =-0.5000-0.5000 0.0000 (   524 PWs)   bands (ev):

    -3.7482   0.7368   2.4091   4.9135

          k = 0.7500-0.2500 0.7500 (   529 PWs)   bands (ev):

    -3.0601  -0.1827   2.6418   4.0173

          k = 0.2500-1.2500 0.7500 (   529 PWs)   bands (ev):

    -3.0601  -0.1827   2.6418   4.0173

          k = 0.5000 0.0000 0.5000 (   524 PWs)   bands (ev):

    -3.7482   0.7368   2.4091   4.9135

          k = 0.0000-1.0000 0.5000 (   516 PWs)   bands (ev):

    -1.4420  -1.4420   2.3021   2.3021

          k = 0.0000-1.0000 0.0000 (   524 PWs)   bands (ev):

    -1.6182  -1.6182   3.3581   3.3581

          k =-0.5000-2.0000 0.0000 (   528 PWs)   bands (ev):

    -4.7302   2.7329   4.3342   4.3342

          k =-0.5000-1.0000 0.0000 (   516 PWs)   bands (ev):

    -1.4420  -1.4420   2.3021   2.3021

          k =-1.0000-2.0000 0.0000 (   524 PWs)   bands (ev):

    -1.6182  -1.6182   3.3581   3.3581

          k = 0.5000 0.0000 0.0000 (   528 PWs)   bands (ev):

    -4.7302   2.7329   4.3342   4.3342

          k = 0.0000-1.0000 0.0000 (   524 PWs)   bands (ev):

    -1.6182  -1.6182   3.3581   3.3581

          k =-0.7500 0.2500-0.7500 (   529 PWs)   bands (ev):

    -3.0601  -0.1827   2.6418   4.0173

          k =-1.2500-0.7500-0.7500 (   531 PWs)   bands (ev):

    -5.0163   2.2803   5.4898   5.4898

          k =-0.2500 0.7500 0.7500 (   529 PWs)   bands (ev):

    -3.0601  -0.1827   2.6418   4.0173

          k =-0.7500-0.2500 0.7500 (   529 PWs)   bands (ev):

    -3.0601  -0.1827   2.6418   4.0173

          k =-0.5000 0.0000-0.5000 (   524 PWs)   bands (ev):

    -3.7482   0.7368   2.4091   4.9135

          k =-1.0000-1.0000-0.5000 (   528 PWs)   bands (ev):

    -4.7302   2.7329   4.3342   4.3342

          k = 0.0000 0.5000 0.5000 (   524 PWs)   bands (ev):

    -3.7482   0.7368   2.4091   4.9135

          k =-0.5000-0.5000 0.5000 (   544 PWs)   bands (ev):

    -3.4435  -0.8222   5.0488   5.0488

          k =-1.0000 0.0000 0.0000 (   524 PWs)   bands (ev):

    -1.6182  -1.6182   3.3581   3.3581

          k =-1.5000-1.0000 0.0000 (   516 PWs)   bands (ev):

    -1.4420  -1.4420   2.3021   2.3021

          k = 0.0000 1.0000 0.5000 (   516 PWs)   bands (ev):

    -1.4420  -1.4420   2.3021   2.3021

          k =-0.5000 0.0000 0.5000 (   524 PWs)   bands (ev):

    -3.7482   0.7368   2.4091   4.9135

          k = 0.5000 1.0000 0.0000 (   516 PWs)   bands (ev):

    -1.4420  -1.4420   2.3021   2.3021

          k = 0.0000 0.0000 0.0000 (   531 PWs)   bands (ev):

    -5.8298   6.2602   6.2602   6.2602

     highest occupied level (ev):     6.2602

     Writing output data file silicon.save

                                                                                

     bravais-lattice index     =            2
     lattice parameter (alat)  =      10.2000  a.u.
     unit-cell volume          =     265.3020 (a.u.)^3
     number of atoms/cell      =            2
     number of atomic types    =            1
     kinetic-energy cut-off    =      24.0000  Ry
     charge density cut-off    =      96.0000  Ry
     convergence threshold     =      1.0E-16
     beta                      =       0.7000
     number of iterations used =            4
     Exchange-correlation      = LDA ( 1  1  0  0 0 0)


     celldm(1)=   10.20000  celldm(2)=    0.00000  celldm(3)=    0.00000
     celldm(4)=    0.00000  celldm(5)=    0.00000  celldm(6)=    0.00000

     crystal axes: (cart. coord. in units of alat)
               a(1) = ( -0.5000  0.0000  0.5000 )  
               a(2) = (  0.0000  0.5000  0.5000 )  
               a(3) = ( -0.5000  0.5000  0.0000 )  

     reciprocal axes: (cart. coord. in units 2 pi/alat)
               b(1) = ( -1.0000 -1.0000  1.0000 )  
               b(2) = (  1.0000  1.0000  1.0000 )  
               b(3) = ( -1.0000  1.0000 -1.0000 )  


     Atoms inside the unit cell: 

     Cartesian axes

     site n.  atom      mass           positions (alat units)
        1     Si  28.0860   tau(    1) = (    0.00000    0.00000    0.00000  )
        2     Si  28.0860   tau(    2) = (    0.25000    0.25000    0.25000  )

     Computing dynamical matrix for 
                    q = (  -0.5000000  -1.0000000   0.0000000 )

      8 Sym.Ops. (no q -> -q+G )


     G cutoff =  252.9949  (   4279 G-vectors)     FFT grid: ( 24, 24, 24)
     number of k points=    32

     PseudoPot. # 1 for Si read from file:
     ./UPF/Si.pz-rrkj.UPF
     MD5 check sum: 884b380b739b48e9cd334294cddc9a8d
     Pseudo is Norm-conserving, Zval =  4.0
     Generated using "atomic" code by A. Dal Corso (espresso distribution)
     Using radial grid of 1141 points,  2 beta functions with: 
                l(1) =   0
                l(2) =   1


     Atomic displacements:
     There are   3 irreducible representations

     Representation     1      2 modes -  To be done

     Representation     2      2 modes -  To be done

     Representation     3      2 modes -  To be done



     Alpha used in Ewald sum =   1.0000
     PHONON       :  1m42.58s CPU     1m44.36s WALL



     Representation #  1 modes #   1  2

     Self-consistent Calculation

      iter #   1 total cpu time :   104.7 secs   av.it.:   5.6
      thresh= 1.000E-02 alpha_mix =  0.700 |ddv_scf|^2 =  4.846E-06

      iter #   2 total cpu time :   105.2 secs   av.it.:   9.1
      thresh= 2.201E-04 alpha_mix =  0.700 |ddv_scf|^2 =  3.406E-06

      iter #   3 total cpu time :   105.7 secs   av.it.:   8.6
      thresh= 1.846E-04 alpha_mix =  0.700 |ddv_scf|^2 =  1.870E-10

      iter #   4 total cpu time :   106.1 secs   av.it.:   8.5
      thresh= 1.367E-06 alpha_mix =  0.700 |ddv_scf|^2 =  1.108E-11

      iter #   5 total cpu time :   106.6 secs   av.it.:   8.7
      thresh= 3.329E-07 alpha_mix =  0.700 |ddv_scf|^2 =  1.965E-14

      iter #   6 total cpu time :   107.1 secs   av.it.:   9.2
      thresh= 1.402E-08 alpha_mix =  0.700 |ddv_scf|^2 =  2.466E-16

      iter #   7 total cpu time :   107.6 secs   av.it.:   9.2
      thresh= 1.571E-09 alpha_mix =  0.700 |ddv_scf|^2 =  2.402E-17

     End of self-consistent calculation

     Convergence has been achieved 


     Representation #  2 modes #   3  4

     Self-consistent Calculation

      iter #   1 total cpu time :   108.0 secs   av.it.:   5.6
      thresh= 1.000E-02 alpha_mix =  0.700 |ddv_scf|^2 =  5.992E-06

      iter #   2 total cpu time :   108.5 secs   av.it.:   9.0
      thresh= 2.448E-04 alpha_mix =  0.700 |ddv_scf|^2 =  7.388E-06

      iter #   3 total cpu time :   108.9 secs   av.it.:   8.5
      thresh= 2.718E-04 alpha_mix =  0.700 |ddv_scf|^2 =  9.007E-10

      iter #   4 total cpu time :   109.4 secs   av.it.:   8.8
      thresh= 3.001E-06 alpha_mix =  0.700 |ddv_scf|^2 =  2.569E-11

      iter #   5 total cpu time :   109.9 secs   av.it.:   8.4
      thresh= 5.068E-07 alpha_mix =  0.700 |ddv_scf|^2 =  6.797E-14

      iter #   6 total cpu time :   110.4 secs   av.it.:   8.2
      thresh= 2.607E-08 alpha_mix =  0.700 |ddv_scf|^2 =  1.257E-15

      iter #   7 total cpu time :   110.8 secs   av.it.:   8.9
      thresh= 3.546E-09 alpha_mix =  0.700 |ddv_scf|^2 =  2.702E-17

     End of self-consistent calculation

     Convergence has been achieved 


     Representation #  3 modes #   5  6

     Self-consistent Calculation

      iter #   1 total cpu time :   111.2 secs   av.it.:   5.4
      thresh= 1.000E-02 alpha_mix =  0.700 |ddv_scf|^2 =  1.927E-06

      iter #   2 total cpu time :   111.7 secs   av.it.:   9.1
      thresh= 1.388E-04 alpha_mix =  0.700 |ddv_scf|^2 =  1.391E-06

      iter #   3 total cpu time :   112.2 secs   av.it.:   8.5
      thresh= 1.179E-04 alpha_mix =  0.700 |ddv_scf|^2 =  1.869E-10

      iter #   4 total cpu time :   112.7 secs   av.it.:   8.8
      thresh= 1.367E-06 alpha_mix =  0.700 |ddv_scf|^2 =  1.984E-11

      iter #   5 total cpu time :   113.1 secs   av.it.:   8.5
      thresh= 4.454E-07 alpha_mix =  0.700 |ddv_scf|^2 =  1.079E-14

      iter #   6 total cpu time :   113.6 secs   av.it.:   9.1
      thresh= 1.039E-08 alpha_mix =  0.700 |ddv_scf|^2 =  1.887E-16

      iter #   7 total cpu time :   114.1 secs   av.it.:   9.3
      thresh= 1.374E-09 alpha_mix =  0.700 |ddv_scf|^2 =  6.995E-17

     End of self-consistent calculation

     Convergence has been achieved 

     Number of q in the star =    6
     List of q in the star:
          1  -0.500000000  -1.000000000   0.000000000
          2   0.000000000   1.000000000   0.500000000
          3   0.000000000  -1.000000000  -0.500000000
          4   0.500000000   1.000000000   0.000000000
          5  -1.000000000  -0.500000000   0.000000000
          6   0.000000000  -0.500000000  -1.000000000

     Diagonalizing the dynamical matrix

     q = (   -0.500000000  -1.000000000   0.000000000 ) 

 **************************************************************************
     freq (    1) =       6.348402 [THz] =     211.759898 [cm-1]
     freq (    2) =       6.348402 [THz] =     211.759898 [cm-1]
     freq (    3) =      10.502349 [THz] =     350.320652 [cm-1]
     freq (    4) =      10.502349 [THz] =     350.320652 [cm-1]
     freq (    5) =      13.648949 [THz] =     455.279936 [cm-1]
     freq (    6) =      13.648949 [THz] =     455.279936 [cm-1]
 **************************************************************************

     Number of q in the star =    6
     List of q in the star:
          1  -0.500000000  -1.000000000   0.000000000
          2   0.000000000   1.000000000   0.500000000
          3   0.000000000  -1.000000000  -0.500000000
          4   0.500000000   1.000000000   0.000000000
          5  -1.000000000  -0.500000000   0.000000000
          6   0.000000000  -0.500000000  -1.000000000
       Writing drho for q = ( -0.500000 -1.000000  0.000000) on file "drho.1o4_-1o2_-1o4"
       Writing drho for q = (  0.000000  1.000000  0.500000) on file "drho.1o4_3o4_1o2"
       Writing drho for q = (  0.000000 -1.000000 -0.500000) on file "drho.-1o4_-3o4_-1o2"
       Writing drho for q = (  0.500000  1.000000  0.000000) on file "drho.-1o4_1o2_1o4"
       Writing drho for q = ( -1.000000 -0.500000  0.000000) on file "drho.1o2_-1o4_1o4"
       Writing drho for q = (  0.000000 -0.500000 -1.000000) on file "drho.-1o2_-3o4_-1o4"

     init_run     :      0.42s CPU      0.42s WALL (       7 calls)
     electrons    :      4.78s CPU      4.86s WALL (       7 calls)

     Called by init_run:
     wfcinit      :      0.00s CPU      0.00s WALL (       7 calls)
     potinit      :      0.02s CPU      0.02s WALL (       7 calls)

     Called by electrons:
     c_bands      :      4.78s CPU      4.86s WALL (       7 calls)
     v_of_rho     :      0.02s CPU      0.01s WALL (       8 calls)

     Called by c_bands:
     init_us_2    :      0.53s CPU      0.64s WALL (    7325 calls)
     cegterg      :      3.94s CPU      4.04s WALL (     292 calls)

     Called by sum_band:

     Called by *egterg:
     h_psi        :      4.10s CPU      4.14s WALL (    3406 calls)
     g_psi        :      0.04s CPU      0.04s WALL (    2822 calls)
     cdiaghg      :      0.11s CPU      0.13s WALL (    3114 calls)

     Called by h_psi:
     add_vuspsi   :      1.63s CPU      1.71s WALL (   74405 calls)

     General routines
     calbec       :      3.26s CPU      3.34s WALL (  150664 calls)
     fft          :      0.18s CPU      0.19s WALL (    1145 calls)
     ffts         :      0.15s CPU      0.18s WALL (    1164 calls)
     fftw         :     84.14s CPU     85.32s WALL (  655670 calls)
     davcio       :      0.48s CPU      0.47s WALL (   38334 calls)

     Parallel routines
     fft_scatter  :      5.46s CPU      5.61s WALL (  657979 calls)

     PHONON       :  1m52.25s CPU     1m54.18s WALL

     INITIALIZATION: 
     phq_setup    :      0.04s CPU      0.04s WALL (       8 calls)
     phq_init     :      1.30s CPU      1.31s WALL (       8 calls)

     phq_init     :      1.30s CPU      1.31s WALL (       8 calls)
     init_vloc    :      0.01s CPU      0.02s WALL (       8 calls)
     init_us_1    :      0.20s CPU      0.19s WALL (       8 calls)

     DYNAMICAL MATRIX:
     dynmat0      :      0.18s CPU      0.19s WALL (       8 calls)
     phqscf       :    101.80s CPU    103.56s WALL (       8 calls)
     dynmatrix    :      0.00s CPU      0.01s WALL (       8 calls)

     phqscf       :    101.80s CPU    103.56s WALL (       8 calls)
     solve_linter :    101.53s CPU    103.25s WALL (      32 calls)
     drhodv       :      0.21s CPU      0.24s WALL (      32 calls)

     dynmat0      :      0.18s CPU      0.19s WALL (       8 calls)
     dynmat_us    :      0.14s CPU      0.15s WALL (       8 calls)
     d2ionq       :      0.03s CPU      0.03s WALL (       8 calls)

     dynmat_us    :      0.14s CPU      0.15s WALL (       8 calls)

     phqscf       :    101.80s CPU    103.56s WALL (       8 calls)
     solve_linter :    101.53s CPU    103.25s WALL (      32 calls)

     solve_linter :    101.53s CPU    103.25s WALL (      32 calls)
     dvqpsi_us    :      1.44s CPU      1.49s WALL (     972 calls)
     ortho        :      0.27s CPU      0.24s WALL (    7532 calls)
     cgsolve      :     82.80s CPU     84.03s WALL (    7532 calls)
     incdrhoscf   :      8.70s CPU      8.94s WALL (    7508 calls)
     vpsifft      :      7.52s CPU      7.68s WALL (    6440 calls)
     dv_of_drho   :      0.20s CPU      0.22s WALL (     371 calls)
     mix_pot      :      0.27s CPU      0.29s WALL (     258 calls)
     psymdvscf    :      1.52s CPU      1.52s WALL (     252 calls)

     dvqpsi_us    :      1.44s CPU      1.49s WALL (     972 calls)
     dvqpsi_us_on :      0.08s CPU      0.09s WALL (     972 calls)

     cgsolve      :     82.80s CPU     84.03s WALL (    7532 calls)
     ch_psi       :     81.04s CPU     82.27s WALL (   70999 calls)

     ch_psi       :     81.04s CPU     82.27s WALL (   70999 calls)
     h_psiq       :     76.67s CPU     77.89s WALL (   70999 calls)
     last         :      4.00s CPU      4.00s WALL (   70999 calls)

     h_psiq       :     76.67s CPU     77.89s WALL (   70999 calls)
     firstfft     :     34.04s CPU     34.17s WALL (  253947 calls)
     secondfft    :     34.76s CPU     35.42s WALL (  253947 calls)
     add_vuspsi   :      1.63s CPU      1.71s WALL (   74405 calls)

     incdrhoscf   :      8.70s CPU      8.94s WALL (    7508 calls)


      General routines
     calbec       :      3.26s CPU      3.34s WALL (  150664 calls)
     fft          :      0.18s CPU      0.19s WALL (    1145 calls)
     ffts         :      0.15s CPU      0.18s WALL (    1164 calls)
     fftw         :     84.14s CPU     85.32s WALL (  655670 calls)
     davcio       :      0.48s CPU      0.47s WALL (   38334 calls)
     write_rec    :      0.34s CPU      0.39s WALL (     290 calls)


     PHONON       :  1m52.25s CPU     1m54.18s WALL


   This run was terminated on:  12:37:29  21Jul2016            

=------------------------------------------------------------------------------=
   JOB DONE.
=------------------------------------------------------------------------------=
