
     Program PHONON v.5.4.0 starts on 20Jul2016 at 17: 8:50 

     This program is part of the open-source Quantum ESPRESSO suite
     for quantum simulation of materials; please cite
         "P. Giannozzi et al., J. Phys.:Condens. Matter 21 395502 (2009);
          URL http://www.quantum-espresso.org", 
     in publications or presentations arising from this work. More details at
     http://www.quantum-espresso.org/quote

     Parallel version (MPI), running on     1 processors

     Reading data from directory:
     ./tmp/silicon.save

   Info: using nr1, nr2, nr3 values from input

   Info: using nr1, nr2, nr3 values from input

     IMPORTANT: XC functional enforced from input :
     Exchange-correlation      =  SLA  PZ   NOGX NOGC ( 1  1  0  0 0 0)
     Any further DFT definition will be discarded
     Please, verify this is what you really want


     G-vector sticks info
     --------------------
     sticks:   dense  smooth     PW     G-vecs:    dense   smooth      PW
     Sum         349     349    109                 4279     4279     749



     Dynamical matrices for ( 3, 3, 3)  uniform grid of q-points
     (   4q-points):
       N         xq(1)         xq(2)         xq(3) 
       1   0.000000000   0.000000000   0.000000000
       2  -0.333333333   0.333333333  -0.333333333
       3   0.000000000   0.666666667   0.000000000
       4   0.666666667  -0.000000000   0.666666667

     Calculation of q =    0.0000000   0.0000000   0.0000000

                                                                                

     bravais-lattice index     =            2
     lattice parameter (alat)  =      10.2000  a.u.
     unit-cell volume          =     265.3020 (a.u.)^3
     number of atoms/cell      =            2
     number of atomic types    =            1
     kinetic-energy cut-off    =      24.0000  Ry
     charge density cut-off    =      96.0000  Ry
     convergence threshold     =      1.0E-06
     beta                      =       0.7000
     number of iterations used =            4
     Exchange-correlation      =  SLA  PZ   NOGX NOGC ( 1  1  0  0 0 0)


     celldm(1)=   10.20000  celldm(2)=    0.00000  celldm(3)=    0.00000
     celldm(4)=    0.00000  celldm(5)=    0.00000  celldm(6)=    0.00000

     crystal axes: (cart. coord. in units of alat)
               a(1) = ( -0.5000  0.0000  0.5000 )  
               a(2) = (  0.0000  0.5000  0.5000 )  
               a(3) = ( -0.5000  0.5000  0.0000 )  

     reciprocal axes: (cart. coord. in units 2 pi/alat)
               b(1) = ( -1.0000 -1.0000  1.0000 )  
               b(2) = (  1.0000  1.0000  1.0000 )  
               b(3) = ( -1.0000  1.0000 -1.0000 )  


     Atoms inside the unit cell: 

     Cartesian axes

     site n.  atom      mass           positions (alat units)
        1     Si  28.0860   tau(    1) = (    0.00000    0.00000    0.00000  )
        2     Si  28.0860   tau(    2) = (    0.25000    0.25000    0.25000  )

     Computing dynamical matrix for 
                    q = (   0.0000000   0.0000000   0.0000000 )

     49 Sym.Ops. (with q -> -q+G )


     G cutoff =  252.9949  (   4279 G-vectors)     FFT grid: ( 24, 24, 24)
     number of k points=     8

     PseudoPot. # 1 for Si read from file:
     ./UPF/Si.pz-vbc.UPF
     MD5 check sum: 6dfa03ddd5817404712e03e4d12deb78
     Pseudo is Norm-conserving, Zval =  4.0
     Generated by new atomic code, or converted to UPF format
     Using radial grid of  431 points,  2 beta functions with: 
                l(1) =   0
                l(2) =   1

     Mode symmetry, O_h (m-3m)  point group:


     Electric field:
     Dielectric constant
     Born effective charges in two ways 


     Atomic displacements:
     There are   2 irreducible representations

     Representation     1      3 modes -T_2g G_25' G_5+  To be done

     Representation     2      3 modes -T_1u G_15  G_4-  To be done



     Alpha used in Ewald sum =   1.0000
     PHONON       :     0.33s CPU         0.34s WALL


     Electric Fields Calculation

      iter #   1 total cpu time :     1.2 secs   av.it.:   6.0
      thresh= 1.000E-02 alpha_mix =  0.700 |ddv_scf|^2 =  5.762E-07

     End of electric fields calculation

          Dielectric constant in cartesian axis 

          (      24.569130209      -0.000000000      -0.000000000 )
          (      -0.000000000      24.569130209      -0.000000000 )
          (      -0.000000000       0.000000000      24.569130209 )

          Effective charges (d Force / dE) in cartesian axis

           atom      1   Si 
      Ex  (       -2.52547       -0.00000       -0.00000 )
      Ey  (       -0.00000       -2.52547       -0.00000 )
      Ez  (       -0.00000        0.00000       -2.52547 )
           atom      2   Si 
      Ex  (       -2.52547        0.00000        0.00000 )
      Ey  (       -0.00000       -2.52547        0.00000 )
      Ez  (        0.00000       -0.00000       -2.52547 )

     Calling punch_plot_e
     Writing on file  drho                                                                                                                                                                                                                                                            


     Representation #  1 modes #   1  2  3

     Self-consistent Calculation

      iter #   1 total cpu time :     1.6 secs   av.it.:   4.8
      thresh= 1.000E-02 alpha_mix =  0.700 |ddv_scf|^2 =  1.082E-07

     End of self-consistent calculation

     Convergence has been achieved 


     Representation #  2 modes #   4  5  6

     Self-consistent Calculation

      iter #   1 total cpu time :     1.9 secs   av.it.:   5.2
      thresh= 1.000E-02 alpha_mix =  0.700 |ddv_scf|^2 =  8.058E-08

     End of self-consistent calculation

     Convergence has been achieved 

     Number of q in the star =    1
     List of q in the star:
          1   0.000000000   0.000000000   0.000000000

          Dielectric constant in cartesian axis 

          (      24.569130209      -0.000000000      -0.000000000 )
          (      -0.000000000      24.569130209      -0.000000000 )
          (      -0.000000000       0.000000000      24.569130209 )

          Effective charges (d Force / dE) in cartesian axis

           atom      1   Si 
      Ex  (       -2.52547       -0.00000       -0.00000 )
      Ey  (       -0.00000       -2.52547       -0.00000 )
      Ez  (       -0.00000        0.00000       -2.52547 )
           atom      2   Si 
      Ex  (       -2.52547        0.00000        0.00000 )
      Ey  (       -0.00000       -2.52547        0.00000 )
      Ez  (        0.00000       -0.00000       -2.52547 )

          Effective charges (d P / du) in cartesian axis 

           atom      1   Si 
      Px  (       -2.44485       -0.00000        0.00000 )
      Py  (       -0.00000       -2.44485        0.00000 )
      Pz  (        0.00000        0.00000       -2.44485 )
           atom      2   Si 
      Px  (       -2.44485        0.00000        0.00000 )
      Py  (        0.00000       -2.44485       -0.00000 )
      Pz  (        0.00000       -0.00000       -2.44485 )

     Diagonalizing the dynamical matrix

     q = (    0.000000000   0.000000000   0.000000000 ) 

 **************************************************************************
     freq (    1) =     -13.128151 [THz] =    -437.907989 [cm-1]
     freq (    2) =     -13.128151 [THz] =    -437.907989 [cm-1]
     freq (    3) =     -13.128151 [THz] =    -437.907989 [cm-1]
     freq (    4) =      -0.628952 [THz] =     -20.979565 [cm-1]
     freq (    5) =      -0.628952 [THz] =     -20.979565 [cm-1]
     freq (    6) =      -0.628952 [THz] =     -20.979565 [cm-1]
 **************************************************************************

     Mode symmetry, O_h (m-3m)  point group:

     freq (  1 -  3) =       -437.9  [cm-1]   --> T_1u G_15  G_4- I  
     freq (  4 -  6) =        -21.0  [cm-1]   --> T_2g G_25' G_5+ R  

     Number of q in the star =    1
     List of q in the star:
          1   0.000000000   0.000000000   0.000000000
       Writing drho for q = (  0.000000  0.000000  0.000000) on file "drho.0_0_0"

     Calculation of q =   -0.3333333   0.3333333  -0.3333333

     G-vector sticks info
     --------------------
     sticks:   dense  smooth     PW     G-vecs:    dense   smooth      PW
     Sum         349     349    121                 4279     4279     941



     bravais-lattice index     =            2
     lattice parameter (alat)  =      10.2000  a.u.
     unit-cell volume          =     265.3020 (a.u.)^3
     number of atoms/cell      =            2
     number of atomic types    =            1
     number of electrons       =         8.00
     number of Kohn-Sham states=            4
     kinetic-energy cutoff     =      24.0000  Ry
     charge density cutoff     =      96.0000  Ry
     Exchange-correlation      =  SLA  PZ   NOGX NOGC ( 1  1  0  0 0 0)

     celldm(1)=  10.200000  celldm(2)=   0.000000  celldm(3)=   0.000000
     celldm(4)=   0.000000  celldm(5)=   0.000000  celldm(6)=   0.000000

     crystal axes: (cart. coord. in units of alat)
               a(1) = (  -0.500000   0.000000   0.500000 )  
               a(2) = (   0.000000   0.500000   0.500000 )  
               a(3) = (  -0.500000   0.500000   0.000000 )  

     reciprocal axes: (cart. coord. in units 2 pi/alat)
               b(1) = ( -1.000000 -1.000000  1.000000 )  
               b(2) = (  1.000000  1.000000  1.000000 )  
               b(3) = ( -1.000000  1.000000 -1.000000 )  


     PseudoPot. # 1 for Si read from file:
     ./UPF/Si.pz-vbc.UPF
     MD5 check sum: 6dfa03ddd5817404712e03e4d12deb78
     Pseudo is Norm-conserving, Zval =  4.0
     Generated by new atomic code, or converted to UPF format
     Using radial grid of  431 points,  2 beta functions with: 
                l(1) =   0
                l(2) =   1

     atomic species   valence    mass     pseudopotential
        Si             4.00    28.08600     Si( 1.00)

     48 Sym. Ops., with inversion, found



   Cartesian axes

     site n.     atom                  positions (alat units)
         1           Si  tau(   1) = (   0.0000000   0.0000000   0.0000000  )
         2           Si  tau(   2) = (   0.2500000   0.2500000   0.2500000  )

     number of k points=    40
                       cart. coord. in units 2pi/alat
        k(    1) = (   0.0000000   0.0000000   0.0000000), wk =   0.0312500
        k(    2) = (  -0.3333333   0.3333333  -0.3333333), wk =   0.0000000
        k(    3) = (  -0.2500000   0.2500000  -0.2500000), wk =   0.0312500
        k(    4) = (  -0.5833333   0.5833333  -0.5833333), wk =   0.0000000
        k(    5) = (   0.5000000  -0.5000000   0.5000000), wk =   0.0312500
        k(    6) = (   0.1666667  -0.1666667   0.1666667), wk =   0.0000000
        k(    7) = (   0.0000000   0.5000000   0.0000000), wk =   0.0937500
        k(    8) = (  -0.3333333   0.8333333  -0.3333333), wk =   0.0000000
        k(    9) = (   0.7500000  -0.2500000   0.7500000), wk =   0.0937500
        k(   10) = (   0.4166667   0.0833333   0.4166667), wk =   0.0000000
        k(   11) = (   0.5000000   0.0000000   0.5000000), wk =   0.0937500
        k(   12) = (   0.1666667   0.3333333   0.1666667), wk =   0.0000000
        k(   13) = (   0.0000000  -1.0000000   0.0000000), wk =   0.0937500
        k(   14) = (  -0.3333333  -0.6666667  -0.3333333), wk =   0.0000000
        k(   15) = (  -0.5000000  -1.0000000   0.0000000), wk =   0.1875000
        k(   16) = (  -0.8333333  -0.6666667  -0.3333333), wk =   0.0000000
        k(   17) = (   0.2500000   0.2500000  -0.2500000), wk =   0.0937500
        k(   18) = (  -0.0833333   0.5833333  -0.5833333), wk =   0.0000000
        k(   19) = (   0.2500000   0.2500000   0.2500000), wk =   0.0937500
        k(   20) = (  -0.0833333   0.5833333  -0.0833333), wk =   0.0000000
        k(   21) = (   0.2500000  -0.2500000   0.2500000), wk =   0.0312500
        k(   22) = (  -0.0833333   0.0833333  -0.0833333), wk =   0.0000000
        k(   23) = (  -0.5000000  -0.5000000   0.5000000), wk =   0.0937500
        k(   24) = (  -0.8333333  -0.1666667   0.1666667), wk =   0.0000000
        k(   25) = (   0.0000000  -0.5000000   0.0000000), wk =   0.0937500
        k(   26) = (  -0.3333333  -0.1666667  -0.3333333), wk =   0.0000000
        k(   27) = (  -0.7500000  -0.2500000   0.7500000), wk =   0.1875000
        k(   28) = (  -1.0833333   0.0833333   0.4166667), wk =   0.0000000
        k(   29) = (  -0.7500000  -0.2500000  -0.7500000), wk =   0.0937500
        k(   30) = (  -1.0833333   0.0833333  -1.0833333), wk =   0.0000000
        k(   31) = (  -0.7500000   0.2500000  -0.7500000), wk =   0.0937500
        k(   32) = (  -1.0833333   0.5833333  -1.0833333), wk =   0.0000000
        k(   33) = (   0.7500000   0.2500000   0.7500000), wk =   0.0937500
        k(   34) = (   0.4166667   0.5833333   0.4166667), wk =   0.0000000
        k(   35) = (  -0.2500000   0.7500000   0.7500000), wk =   0.1875000
        k(   36) = (  -0.5833333   1.0833333   0.4166667), wk =   0.0000000
        k(   37) = (  -0.5000000   0.0000000   0.5000000), wk =   0.1875000
        k(   38) = (  -0.8333333   0.3333333   0.1666667), wk =   0.0000000
        k(   39) = (  -0.5000000   0.0000000  -0.5000000), wk =   0.0937500
        k(   40) = (  -0.8333333   0.3333333  -0.8333333), wk =   0.0000000

     Dense  grid:     4279 G-vectors     FFT dimensions: (  24,  24,  24)

     Largest allocated arrays     est. size (Mb)     dimensions
        Kohn-Sham Wavefunctions         0.03 Mb     (     544,    4)
        NL pseudopotentials             0.07 Mb     (     544,    8)
        Each V/rho on FFT grid          0.21 Mb     (   13824)
        Each G-vector array             0.03 Mb     (    4279)
        G-vector shells                 0.00 Mb     (      86)
     Largest temporary arrays     est. size (Mb)     dimensions
        Auxiliary wavefunctions         0.13 Mb     (     544,   16)
        Each subspace H/S matrix        0.00 Mb     (      16,   16)
        Each <psi_i|beta_j> matrix      0.00 Mb     (       8,    4)

     The potential is recalculated from file :
     ./tmp/_ph0/silicon.save/charge-density.dat

     Starting wfc are    8 atomic wfcs

     Band Structure Calculation
     Davidson diagonalization with overlap

     ethr =  1.25E-10,  avg # of iterations = 11.0

     total cpu time spent up to now is        0.8 secs

     End of band structure calculation

          k = 0.0000 0.0000 0.0000 (   531 PWs)   bands (ev):

    -5.7903   6.2775   6.2775   6.2775

          k =-0.3333 0.3333-0.3333 (   528 PWs)   bands (ev):

    -4.3850   0.8818   5.2581   5.2581

          k =-0.2500 0.2500-0.2500 (   531 PWs)   bands (ev):

    -4.9756   2.3131   5.5019   5.5019

          k =-0.5833 0.5833-0.5833 (   529 PWs)   bands (ev):

    -3.7443  -0.2756   5.1081   5.1081

          k = 0.5000-0.5000 0.5000 (   544 PWs)   bands (ev):

    -3.3938  -0.8001   5.0574   5.0574

          k = 0.1667-0.1667 0.1667 (   534 PWs)   bands (ev):

    -5.4228   3.8804   5.8163   5.8163

          k = 0.0000 0.5000 0.0000 (   528 PWs)   bands (ev):

    -4.6895   2.7859   4.3419   4.3419

          k =-0.3333 0.8333-0.3333 (   526 PWs)   bands (ev):

    -2.6740  -0.5752   2.2818   4.2075

          k = 0.7500-0.2500 0.7500 (   529 PWs)   bands (ev):

    -3.0137  -0.1421   2.6549   4.0228

          k = 0.4167 0.0833 0.4167 (   526 PWs)   bands (ev):

    -4.2797   1.3906   3.3021   5.3317

          k = 0.5000 0.0000 0.5000 (   524 PWs)   bands (ev):

    -3.7043   0.7809   2.4181   4.9226

          k = 0.1667 0.3333 0.1667 (   535 PWs)   bands (ev):

    -5.0609   2.8246   5.1428   5.3371

          k = 0.0000-1.0000 0.0000 (   524 PWs)   bands (ev):

    -1.5717  -1.5717   3.3604   3.3604

          k =-0.3333-0.6667-0.3333 (   524 PWs)   bands (ev):

    -3.2389  -0.4043   3.4480   4.4629

          k =-0.5000-1.0000 0.0000 (   516 PWs)   bands (ev):

    -1.3914  -1.3914   2.3060   2.3060

          k =-0.8333-0.6667-0.3333 (   525 PWs)   bands (ev):

    -3.3901   0.2133   2.9815   4.0968

          k = 0.2500 0.2500-0.2500 (   531 PWs)   bands (ev):

    -4.9756   2.3131   5.5019   5.5019

          k =-0.0833 0.5833-0.5833 (   530 PWs)   bands (ev):

    -3.0643  -0.0624   2.1529   4.5200

          k = 0.2500 0.2500 0.2500 (   531 PWs)   bands (ev):

    -4.9756   2.3131   5.5019   5.5019

          k =-0.0833 0.5833-0.0833 (   530 PWs)   bands (ev):

    -4.2446   1.8623   3.8636   4.0907

          k = 0.2500-0.2500 0.2500 (   531 PWs)   bands (ev):

    -4.9756   2.3131   5.5019   5.5019

          k =-0.0833 0.0833-0.0833 (   534 PWs)   bands (ev):

    -5.6978   5.4163   6.1298   6.1298

          k =-0.5000-0.5000 0.5000 (   544 PWs)   bands (ev):

    -3.3938  -0.8001   5.0574   5.0574

          k =-0.8333-0.1667 0.1667 (   524 PWs)   bands (ev):

    -2.6624  -0.2993   2.5406   3.6651

          k = 0.0000-0.5000 0.0000 (   528 PWs)   bands (ev):

    -4.6895   2.7859   4.3419   4.3419

          k =-0.3333-0.1667-0.3333 (   530 PWs)   bands (ev):

    -4.7119   1.8367   4.5505   5.5837

          k =-0.7500-0.2500 0.7500 (   529 PWs)   bands (ev):

    -3.0137  -0.1421   2.6549   4.0228

          k =-1.0833 0.0833 0.4167 (   521 PWs)   bands (ev):

    -1.9596  -0.8885   2.0701   2.8753

          k =-0.7500-0.2500-0.7500 (   529 PWs)   bands (ev):

    -3.0137  -0.1421   2.6549   4.0228

          k =-1.0833 0.0833-1.0833 (   520 PWs)   bands (ev):

    -2.1780  -0.8919   3.0194   3.4382

          k =-0.7500 0.2500-0.7500 (   529 PWs)   bands (ev):

    -3.0137  -0.1421   2.6549   4.0228

          k =-1.0833 0.5833-1.0833 (   536 PWs)   bands (ev):

    -4.9648   3.1599   4.7056   4.7119

          k = 0.7500 0.2500 0.7500 (   529 PWs)   bands (ev):

    -3.0137  -0.1421   2.6549   4.0228

          k = 0.4167 0.5833 0.4167 (   535 PWs)   bands (ev):

    -3.3579  -0.6891   4.4667   4.8745

          k =-0.2500 0.7500 0.7500 (   529 PWs)   bands (ev):

    -3.0137  -0.1421   2.6549   4.0228

          k =-0.5833 1.0833 0.4167 (   528 PWs)   bands (ev):

    -3.6248   0.5814   2.6738   4.5835

          k =-0.5000 0.0000 0.5000 (   524 PWs)   bands (ev):

    -3.7043   0.7809   2.4181   4.9226

          k =-0.8333 0.3333 0.1667 (   527 PWs)   bands (ev):

    -2.5220  -0.4858   2.2183   3.5873

          k =-0.5000 0.0000-0.5000 (   524 PWs)   bands (ev):

    -3.7043   0.7809   2.4181   4.9226

          k =-0.8333 0.3333-0.8333 (   529 PWs)   bands (ev):

    -3.6565   0.8110   3.2143   3.9824

     highest occupied level (ev):     6.2775

     Writing output data file silicon.save

                                                                                

     bravais-lattice index     =            2
     lattice parameter (alat)  =      10.2000  a.u.
     unit-cell volume          =     265.3020 (a.u.)^3
     number of atoms/cell      =            2
     number of atomic types    =            1
     kinetic-energy cut-off    =      24.0000  Ry
     charge density cut-off    =      96.0000  Ry
     convergence threshold     =      1.0E-06
     beta                      =       0.7000
     number of iterations used =            4
     Exchange-correlation      =  SLA  PZ   NOGX NOGC ( 1  1  0  0 0 0)


     celldm(1)=   10.20000  celldm(2)=    0.00000  celldm(3)=    0.00000
     celldm(4)=    0.00000  celldm(5)=    0.00000  celldm(6)=    0.00000

     crystal axes: (cart. coord. in units of alat)
               a(1) = ( -0.5000  0.0000  0.5000 )  
               a(2) = (  0.0000  0.5000  0.5000 )  
               a(3) = ( -0.5000  0.5000  0.0000 )  

     reciprocal axes: (cart. coord. in units 2 pi/alat)
               b(1) = ( -1.0000 -1.0000  1.0000 )  
               b(2) = (  1.0000  1.0000  1.0000 )  
               b(3) = ( -1.0000  1.0000 -1.0000 )  


     Atoms inside the unit cell: 

     Cartesian axes

     site n.  atom      mass           positions (alat units)
        1     Si  28.0860   tau(    1) = (    0.00000    0.00000    0.00000  )
        2     Si  28.0860   tau(    2) = (    0.25000    0.25000    0.25000  )

     Computing dynamical matrix for 
                    q = (  -0.3333333   0.3333333  -0.3333333 )

      6 Sym.Ops. (no q -> -q+G )


     G cutoff =  252.9949  (   4279 G-vectors)     FFT grid: ( 24, 24, 24)
     number of k points=    40

     PseudoPot. # 1 for Si read from file:
     ./UPF/Si.pz-vbc.UPF
     MD5 check sum: 6dfa03ddd5817404712e03e4d12deb78
     Pseudo is Norm-conserving, Zval =  4.0
     Generated by new atomic code, or converted to UPF format
     Using radial grid of  431 points,  2 beta functions with: 
                l(1) =   0
                l(2) =   1

     Mode symmetry, C_3v (3m)   point group:


     Atomic displacements:
     There are   4 irreducible representations

     Representation     1      1 modes -A_1  L_1  To be done

     Representation     2      1 modes -A_1  L_1  To be done

     Representation     3      2 modes -E    L_3  To be done

     Representation     4      2 modes -E    L_3  To be done



     Alpha used in Ewald sum =   1.0000
     PHONON       :     2.84s CPU         2.89s WALL



     Representation #  1 mode #   1

     Self-consistent Calculation

      iter #   1 total cpu time :     3.1 secs   av.it.:   6.0
      thresh= 1.000E-02 alpha_mix =  0.700 |ddv_scf|^2 =  4.930E-04

      iter #   2 total cpu time :     3.4 secs   av.it.:   8.2
      thresh= 2.220E-03 alpha_mix =  0.700 |ddv_scf|^2 =  4.258E-03

      iter #   3 total cpu time :     3.7 secs   av.it.:   6.8
      thresh= 6.525E-03 alpha_mix =  0.700 |ddv_scf|^2 =  7.628E-07

     End of self-consistent calculation

     Convergence has been achieved 


     Representation #  2 mode #   2

     Self-consistent Calculation

      iter #   1 total cpu time :     3.9 secs   av.it.:   6.0
      thresh= 1.000E-02 alpha_mix =  0.700 |ddv_scf|^2 =  4.931E-04

      iter #   2 total cpu time :     4.2 secs   av.it.:   8.2
      thresh= 2.221E-03 alpha_mix =  0.700 |ddv_scf|^2 =  4.258E-03

      iter #   3 total cpu time :     4.4 secs   av.it.:   6.8
      thresh= 6.526E-03 alpha_mix =  0.700 |ddv_scf|^2 =  7.621E-07

     End of self-consistent calculation

     Convergence has been achieved 


     Representation #  3 modes #   3  4

     Self-consistent Calculation

      iter #   1 total cpu time :     4.8 secs   av.it.:   5.3
      thresh= 1.000E-02 alpha_mix =  0.700 |ddv_scf|^2 =  3.366E-07

     End of self-consistent calculation

     Convergence has been achieved 


     Representation #  4 modes #   5  6

     Self-consistent Calculation

      iter #   1 total cpu time :     5.3 secs   av.it.:   5.3
      thresh= 1.000E-02 alpha_mix =  0.700 |ddv_scf|^2 =  3.359E-07

     End of self-consistent calculation

     Convergence has been achieved 

     Number of q in the star =    8
     List of q in the star:
          1  -0.333333333   0.333333333  -0.333333333
          2   0.333333333   0.333333333  -0.333333333
          3   0.333333333   0.333333333   0.333333333
          4  -0.333333333   0.333333333   0.333333333
          5   0.333333333  -0.333333333   0.333333333
          6  -0.333333333  -0.333333333  -0.333333333
          7   0.333333333  -0.333333333  -0.333333333
          8  -0.333333333  -0.333333333   0.333333333

     Diagonalizing the dynamical matrix

     q = (   -0.333333333   0.333333333  -0.333333333 ) 

 **************************************************************************
     freq (    1) =     -16.034153 [THz] =    -534.841758 [cm-1]
     freq (    2) =     -16.034153 [THz] =    -534.841758 [cm-1]
     freq (    3) =      -7.230742 [THz] =    -241.191590 [cm-1]
     freq (    4) =      -7.230742 [THz] =    -241.191590 [cm-1]
     freq (    5) =      13.384029 [THz] =     446.443157 [cm-1]
     freq (    6) =      21.408052 [THz] =     714.095758 [cm-1]
 **************************************************************************

     Mode symmetry, C_3v (3m)   point group:

     freq (  1 -  2) =       -534.8  [cm-1]   --> E    L_3           
     freq (  3 -  4) =       -241.2  [cm-1]   --> E    L_3           
     freq (  5 -  5) =        446.4  [cm-1]   --> A_1  L_1           
     freq (  6 -  6) =        714.1  [cm-1]   --> A_1  L_1           

     Number of q in the star =    8
     List of q in the star:
          1  -0.333333333   0.333333333  -0.333333333
          2   0.333333333   0.333333333  -0.333333333
          3   0.333333333   0.333333333   0.333333333
          4  -0.333333333   0.333333333   0.333333333
          5   0.333333333  -0.333333333   0.333333333
          6  -0.333333333  -0.333333333  -0.333333333
          7   0.333333333  -0.333333333  -0.333333333
          8  -0.333333333  -0.333333333   0.333333333
       Writing drho for q = ( -0.333333  0.333333 -0.333333) on file "drho.0_0_1o3"
       Writing drho for q = (  0.333333  0.333333 -0.333333) on file "drho.-1o3_0_0"
       Writing drho for q = (  0.333333  0.333333  0.333333) on file "drho.0_1o3_0"
       Writing drho for q = ( -0.333333  0.333333  0.333333) on file "drho.1o3_1o3_1o3"
       Writing drho for q = (  0.333333 -0.333333  0.333333) on file "drho.0_0_-1o3"
       Writing drho for q = ( -0.333333 -0.333333 -0.333333) on file "drho.0_-1o3_0"
       Writing drho for q = (  0.333333 -0.333333 -0.333333) on file "drho.-1o3_-1o3_-1o3"
       Writing drho for q = ( -0.333333 -0.333333  0.333333) on file "drho.1o3_0_0"

     Calculation of q =    0.0000000   0.6666667   0.0000000

     G-vector sticks info
     --------------------
     sticks:   dense  smooth     PW     G-vecs:    dense   smooth      PW
     Sum         349     349    121                 4279     4279     941



     bravais-lattice index     =            2
     lattice parameter (alat)  =      10.2000  a.u.
     unit-cell volume          =     265.3020 (a.u.)^3
     number of atoms/cell      =            2
     number of atomic types    =            1
     number of electrons       =         8.00
     number of Kohn-Sham states=            4
     kinetic-energy cutoff     =      24.0000  Ry
     charge density cutoff     =      96.0000  Ry
     Exchange-correlation      =  SLA  PZ   NOGX NOGC ( 1  1  0  0 0 0)

     celldm(1)=  10.200000  celldm(2)=   0.000000  celldm(3)=   0.000000
     celldm(4)=   0.000000  celldm(5)=   0.000000  celldm(6)=   0.000000

     crystal axes: (cart. coord. in units of alat)
               a(1) = (  -0.500000   0.000000   0.500000 )  
               a(2) = (   0.000000   0.500000   0.500000 )  
               a(3) = (  -0.500000   0.500000   0.000000 )  

     reciprocal axes: (cart. coord. in units 2 pi/alat)
               b(1) = ( -1.000000 -1.000000  1.000000 )  
               b(2) = (  1.000000  1.000000  1.000000 )  
               b(3) = ( -1.000000  1.000000 -1.000000 )  


     PseudoPot. # 1 for Si read from file:
     ./UPF/Si.pz-vbc.UPF
     MD5 check sum: 6dfa03ddd5817404712e03e4d12deb78
     Pseudo is Norm-conserving, Zval =  4.0
     Generated by new atomic code, or converted to UPF format
     Using radial grid of  431 points,  2 beta functions with: 
                l(1) =   0
                l(2) =   1

     atomic species   valence    mass     pseudopotential
        Si             4.00    28.08600     Si( 1.00)

     48 Sym. Ops., with inversion, found



   Cartesian axes

     site n.     atom                  positions (alat units)
         1           Si  tau(   1) = (   0.0000000   0.0000000   0.0000000  )
         2           Si  tau(   2) = (   0.2500000   0.2500000   0.2500000  )

     number of k points=    36
                       cart. coord. in units 2pi/alat
        k(    1) = (   0.0000000   0.0000000   0.0000000), wk =   0.0312500
        k(    2) = (   0.0000000   0.6666667   0.0000000), wk =   0.0000000
        k(    3) = (  -0.2500000   0.2500000  -0.2500000), wk =   0.1250000
        k(    4) = (  -0.2500000   0.9166667  -0.2500000), wk =   0.0000000
        k(    5) = (   0.5000000  -0.5000000   0.5000000), wk =   0.1250000
        k(    6) = (   0.5000000   0.1666667   0.5000000), wk =   0.0000000
        k(    7) = (   0.0000000   0.5000000   0.0000000), wk =   0.0312500
        k(    8) = (   0.0000000   1.1666667   0.0000000), wk =   0.0000000
        k(    9) = (   0.7500000  -0.2500000   0.7500000), wk =   0.1250000
        k(   10) = (   0.7500000   0.4166667   0.7500000), wk =   0.0000000
        k(   11) = (   0.5000000   0.0000000   0.5000000), wk =   0.1250000
        k(   12) = (   0.5000000   0.6666667   0.5000000), wk =   0.0000000
        k(   13) = (   0.0000000  -1.0000000   0.0000000), wk =   0.0312500
        k(   14) = (   0.0000000  -0.3333333   0.0000000), wk =   0.0000000
        k(   15) = (  -0.5000000  -1.0000000   0.0000000), wk =   0.1250000
        k(   16) = (  -0.5000000  -0.3333333   0.0000000), wk =   0.0000000
        k(   17) = (   0.2500000  -0.2500000   0.2500000), wk =   0.1250000
        k(   18) = (   0.2500000   0.4166667   0.2500000), wk =   0.0000000
        k(   19) = (  -0.5000000   0.0000000   0.0000000), wk =   0.1250000
        k(   20) = (  -0.5000000   0.6666667   0.0000000), wk =   0.0000000
        k(   21) = (   0.0000000  -0.5000000   0.0000000), wk =   0.0312500
        k(   22) = (   0.0000000   0.1666667   0.0000000), wk =   0.0000000
        k(   23) = (   0.2500000  -0.7500000   0.7500000), wk =   0.2500000
        k(   24) = (   0.2500000  -0.0833333   0.7500000), wk =   0.0000000
        k(   25) = (  -0.7500000   0.2500000  -0.7500000), wk =   0.1250000
        k(   26) = (  -0.7500000   0.9166667  -0.7500000), wk =   0.0000000
        k(   27) = (  -0.7500000   0.7500000  -0.2500000), wk =   0.2500000
        k(   28) = (  -0.7500000   1.4166667  -0.2500000), wk =   0.0000000
        k(   29) = (   0.0000000  -0.5000000   0.5000000), wk =   0.1250000
        k(   30) = (   0.0000000   0.1666667   0.5000000), wk =   0.0000000
        k(   31) = (  -0.5000000   0.5000000   0.0000000), wk =   0.1250000
        k(   32) = (  -0.5000000   1.1666667   0.0000000), wk =   0.0000000
        k(   33) = (   1.0000000   0.0000000   0.0000000), wk =   0.0625000
        k(   34) = (   1.0000000   0.6666667   0.0000000), wk =   0.0000000
        k(   35) = (   0.0000000  -0.5000000  -1.0000000), wk =   0.0625000
        k(   36) = (   0.0000000   0.1666667  -1.0000000), wk =   0.0000000

     Dense  grid:     4279 G-vectors     FFT dimensions: (  24,  24,  24)

     Largest allocated arrays     est. size (Mb)     dimensions
        Kohn-Sham Wavefunctions         0.03 Mb     (     544,    4)
        NL pseudopotentials             0.07 Mb     (     544,    8)
        Each V/rho on FFT grid          0.21 Mb     (   13824)
        Each G-vector array             0.03 Mb     (    4279)
        G-vector shells                 0.00 Mb     (      86)
     Largest temporary arrays     est. size (Mb)     dimensions
        Auxiliary wavefunctions         0.13 Mb     (     544,   16)
        Each subspace H/S matrix        0.00 Mb     (      16,   16)
        Each <psi_i|beta_j> matrix      0.00 Mb     (       8,    4)

     The potential is recalculated from file :
     ./tmp/_ph0/silicon.save/charge-density.dat

     Starting wfc are    8 atomic wfcs

     Band Structure Calculation
     Davidson diagonalization with overlap

     ethr =  1.25E-10,  avg # of iterations = 10.7

     total cpu time spent up to now is        1.5 secs

     End of band structure calculation

          k = 0.0000 0.0000 0.0000 (   531 PWs)   bands (ev):

    -5.7903   6.2775   6.2775   6.2775

          k = 0.0000 0.6667 0.0000 (   520 PWs)   bands (ev):

    -3.8523   1.2782   3.8041   3.8041

          k =-0.2500 0.2500-0.2500 (   531 PWs)   bands (ev):

    -4.9756   2.3131   5.5019   5.5019

          k =-0.2500 0.9167-0.2500 (   522 PWs)   bands (ev):

    -2.1735  -0.8065   1.9398   3.8227

          k = 0.5000-0.5000 0.5000 (   544 PWs)   bands (ev):

    -3.3938  -0.8001   5.0574   5.0574

          k = 0.5000 0.1667 0.5000 (   530 PWs)   bands (ev):

    -3.6381   0.2138   3.1635   4.9542

          k = 0.0000 0.5000 0.0000 (   528 PWs)   bands (ev):

    -4.6895   2.7859   4.3419   4.3419

          k = 0.0000 1.1667 0.0000 (   520 PWs)   bands (ev):

    -2.8041  -0.1939   3.4725   3.4725

          k = 0.7500-0.2500 0.7500 (   529 PWs)   bands (ev):

    -3.0137  -0.1421   2.6549   4.0228

          k = 0.7500 0.4167 0.7500 (   529 PWs)   bands (ev):

    -3.8437   0.5587   3.8000   4.4059

          k = 0.5000 0.0000 0.5000 (   524 PWs)   bands (ev):

    -3.7043   0.7809   2.4181   4.9226

          k = 0.5000 0.6667 0.5000 (   530 PWs)   bands (ev):

    -3.4849  -0.5041   4.3675   5.0220

          k = 0.0000-1.0000 0.0000 (   524 PWs)   bands (ev):

    -1.5717  -1.5717   3.3604   3.3604

          k = 0.0000-0.3333 0.0000 (   532 PWs)   bands (ev):

    -5.2979   4.2673   5.0527   5.0527

          k =-0.5000-1.0000 0.0000 (   516 PWs)   bands (ev):

    -1.3914  -1.3914   2.3060   2.3060

          k =-0.5000-0.3333 0.0000 (   533 PWs)   bands (ev):

    -4.2423   1.5817   3.0915   4.9776

          k = 0.2500-0.2500 0.2500 (   531 PWs)   bands (ev):

    -4.9756   2.3131   5.5019   5.5019

          k = 0.2500 0.4167 0.2500 (   527 PWs)   bands (ev):

    -4.5132   1.3639   4.9307   4.9783

          k =-0.5000 0.0000 0.0000 (   528 PWs)   bands (ev):

    -4.6895   2.7859   4.3419   4.3419

          k =-0.5000 0.6667 0.0000 (   523 PWs)   bands (ev):

    -2.9992   0.0423   2.0056   4.1480

          k = 0.0000-0.5000 0.0000 (   528 PWs)   bands (ev):

    -4.6895   2.7859   4.3419   4.3419

          k = 0.0000 0.1667 0.0000 (   532 PWs)   bands (ev):

    -5.6668   5.6005   5.8340   5.8340

          k = 0.2500-0.7500 0.7500 (   529 PWs)   bands (ev):

    -3.0137  -0.1421   2.6549   4.0228

          k = 0.2500-0.0833 0.7500 (   523 PWs)   bands (ev):

    -3.1308   0.2497   2.7559   3.5790

          k =-0.7500 0.2500-0.7500 (   529 PWs)   bands (ev):

    -3.0137  -0.1421   2.6549   4.0228

          k =-0.7500 0.9167-0.7500 (   534 PWs)   bands (ev):

    -5.2108   3.3201   4.8558   5.9196

          k =-0.7500 0.7500-0.2500 (   529 PWs)   bands (ev):

    -3.0137  -0.1421   2.6549   4.0228

          k =-0.7500 1.4167-0.2500 (   531 PWs)   bands (ev):

    -2.8730  -0.5199   2.7322   4.0776

          k = 0.0000-0.5000 0.5000 (   524 PWs)   bands (ev):

    -3.7043   0.7809   2.4181   4.9226

          k = 0.0000 0.1667 0.5000 (   529 PWs)   bands (ev):

    -4.5764   2.3666   3.8846   4.6157

          k =-0.5000 0.5000 0.0000 (   524 PWs)   bands (ev):

    -3.7043   0.7809   2.4181   4.9226

          k =-0.5000 1.1667 0.0000 (   523 PWs)   bands (ev):

    -2.1952  -0.6570   1.9410   3.1081

          k = 1.0000 0.0000 0.0000 (   524 PWs)   bands (ev):

    -1.5717  -1.5717   3.3604   3.3604

          k = 1.0000 0.6667 0.0000 (   518 PWs)   bands (ev):

    -1.4402  -1.4402   2.5245   2.5245

          k = 0.0000-0.5000-1.0000 (   516 PWs)   bands (ev):

    -1.3914  -1.3914   2.3060   2.3060

          k = 0.0000 0.1667-1.0000 (   522 PWs)   bands (ev):

    -1.5301  -1.5301   3.0358   3.0358

     highest occupied level (ev):     6.2775

     Writing output data file silicon.save

                                                                                

     bravais-lattice index     =            2
     lattice parameter (alat)  =      10.2000  a.u.
     unit-cell volume          =     265.3020 (a.u.)^3
     number of atoms/cell      =            2
     number of atomic types    =            1
     kinetic-energy cut-off    =      24.0000  Ry
     charge density cut-off    =      96.0000  Ry
     convergence threshold     =      1.0E-06
     beta                      =       0.7000
     number of iterations used =            4
     Exchange-correlation      =  SLA  PZ   NOGX NOGC ( 1  1  0  0 0 0)


     celldm(1)=   10.20000  celldm(2)=    0.00000  celldm(3)=    0.00000
     celldm(4)=    0.00000  celldm(5)=    0.00000  celldm(6)=    0.00000

     crystal axes: (cart. coord. in units of alat)
               a(1) = ( -0.5000  0.0000  0.5000 )  
               a(2) = (  0.0000  0.5000  0.5000 )  
               a(3) = ( -0.5000  0.5000  0.0000 )  

     reciprocal axes: (cart. coord. in units 2 pi/alat)
               b(1) = ( -1.0000 -1.0000  1.0000 )  
               b(2) = (  1.0000  1.0000  1.0000 )  
               b(3) = ( -1.0000  1.0000 -1.0000 )  


     Atoms inside the unit cell: 

     Cartesian axes

     site n.  atom      mass           positions (alat units)
        1     Si  28.0860   tau(    1) = (    0.00000    0.00000    0.00000  )
        2     Si  28.0860   tau(    2) = (    0.25000    0.25000    0.25000  )

     Computing dynamical matrix for 
                    q = (   0.0000000   0.6666667   0.0000000 )

      8 Sym.Ops. (no q -> -q+G )


     G cutoff =  252.9949  (   4279 G-vectors)     FFT grid: ( 24, 24, 24)
     number of k points=    36

     PseudoPot. # 1 for Si read from file:
     ./UPF/Si.pz-vbc.UPF
     MD5 check sum: 6dfa03ddd5817404712e03e4d12deb78
     Pseudo is Norm-conserving, Zval =  4.0
     Generated by new atomic code, or converted to UPF format
     Using radial grid of  431 points,  2 beta functions with: 
                l(1) =   0
                l(2) =   1

     Mode symmetry, C_4v (4mm)  point group:


     Atomic displacements:
     There are   4 irreducible representations

     Representation     1      1 modes -A_1  G_1 D_1  To be done

     Representation     2      1 modes -B_2  G_4 D_2'  To be done

     Representation     3      2 modes -E    G_5 D_5  To be done

     Representation     4      2 modes -E    G_5 D_5  To be done



     Alpha used in Ewald sum =   1.0000
     PHONON       :     6.01s CPU         6.11s WALL



     Representation #  1 mode #   1

     Self-consistent Calculation

      iter #   1 total cpu time :     6.3 secs   av.it.:   5.7
      thresh= 1.000E-02 alpha_mix =  0.700 |ddv_scf|^2 =  4.901E-04

      iter #   2 total cpu time :     6.6 secs   av.it.:   7.8
      thresh= 2.214E-03 alpha_mix =  0.700 |ddv_scf|^2 =  3.242E-03

      iter #   3 total cpu time :     6.8 secs   av.it.:   6.7
      thresh= 5.694E-03 alpha_mix =  0.700 |ddv_scf|^2 =  3.938E-08

     End of self-consistent calculation

     Convergence has been achieved 


     Representation #  2 mode #   2

     Self-consistent Calculation

      iter #   1 total cpu time :     7.0 secs   av.it.:   5.3
      thresh= 1.000E-02 alpha_mix =  0.700 |ddv_scf|^2 =  6.684E-06

      iter #   2 total cpu time :     7.2 secs   av.it.:   8.3
      thresh= 2.585E-04 alpha_mix =  0.700 |ddv_scf|^2 =  2.500E-06

      iter #   3 total cpu time :     7.5 secs   av.it.:   8.2
      thresh= 1.581E-04 alpha_mix =  0.700 |ddv_scf|^2 =  4.004E-09

     End of self-consistent calculation

     Convergence has been achieved 


     Representation #  3 modes #   3  4

     Self-consistent Calculation

      iter #   1 total cpu time :     7.9 secs   av.it.:   5.4
      thresh= 1.000E-02 alpha_mix =  0.700 |ddv_scf|^2 =  1.025E-06

      iter #   2 total cpu time :     8.4 secs   av.it.:   9.7
      thresh= 1.013E-04 alpha_mix =  0.700 |ddv_scf|^2 =  2.261E-07

     End of self-consistent calculation

     Convergence has been achieved 


     Representation #  4 modes #   5  6

     Self-consistent Calculation

      iter #   1 total cpu time :     8.8 secs   av.it.:   5.4
      thresh= 1.000E-02 alpha_mix =  0.700 |ddv_scf|^2 =  6.991E-07

     End of self-consistent calculation

     Convergence has been achieved 

     Number of q in the star =    6
     List of q in the star:
          1   0.000000000   0.666666667   0.000000000
          2  -0.666666667   0.000000000   0.000000000
          3   0.000000000  -0.666666667   0.000000000
          4   0.000000000   0.000000000   0.666666667
          5   0.000000000   0.000000000  -0.666666667
          6   0.666666667   0.000000000   0.000000000

     Diagonalizing the dynamical matrix

     q = (    0.000000000   0.666666667   0.000000000 ) 

 **************************************************************************
     freq (    1) =     -16.422002 [THz] =    -547.779040 [cm-1]
     freq (    2) =     -16.422002 [THz] =    -547.779040 [cm-1]
     freq (    3) =       8.563796 [THz] =     285.657491 [cm-1]
     freq (    4) =      14.221521 [THz] =     474.378887 [cm-1]
     freq (    5) =      19.628221 [THz] =     654.726968 [cm-1]
     freq (    6) =      19.628221 [THz] =     654.726968 [cm-1]
 **************************************************************************

     Mode symmetry, C_4v (4mm)  point group:

     freq (  1 -  2) =       -547.8  [cm-1]   --> E    G_5 D_5       
     freq (  3 -  3) =        285.7  [cm-1]   --> A_1  G_1 D_1       
     freq (  4 -  4) =        474.4  [cm-1]   --> B_2  G_4 D_2'      
     freq (  5 -  6) =        654.7  [cm-1]   --> E    G_5 D_5       

     Number of q in the star =    6
     List of q in the star:
          1   0.000000000   0.666666667   0.000000000
          2  -0.666666667   0.000000000   0.000000000
          3   0.000000000  -0.666666667   0.000000000
          4   0.000000000   0.000000000   0.666666667
          5   0.000000000   0.000000000  -0.666666667
          6   0.666666667   0.000000000   0.000000000
       Writing drho for q = (  0.000000  0.666667  0.000000) on file "drho.0_1o3_1o3"
       Writing drho for q = ( -0.666667  0.000000  0.000000) on file "drho.1o3_0_1o3"
       Writing drho for q = (  0.000000 -0.666667  0.000000) on file "drho.0_-1o3_-1o3"
       Writing drho for q = (  0.000000  0.000000  0.666667) on file "drho.1o3_1o3_0"
       Writing drho for q = (  0.000000  0.000000 -0.666667) on file "drho.-1o3_-1o3_0"
       Writing drho for q = (  0.666667  0.000000  0.000000) on file "drho.-1o3_0_-1o3"

     Calculation of q =    0.6666667  -0.0000000   0.6666667

     G-vector sticks info
     --------------------
     sticks:   dense  smooth     PW     G-vecs:    dense   smooth      PW
     Sum         349     349    139                 4279     4279    1037



     bravais-lattice index     =            2
     lattice parameter (alat)  =      10.2000  a.u.
     unit-cell volume          =     265.3020 (a.u.)^3
     number of atoms/cell      =            2
     number of atomic types    =            1
     number of electrons       =         8.00
     number of Kohn-Sham states=            4
     kinetic-energy cutoff     =      24.0000  Ry
     charge density cutoff     =      96.0000  Ry
     Exchange-correlation      =  SLA  PZ   NOGX NOGC ( 1  1  0  0 0 0)

     celldm(1)=  10.200000  celldm(2)=   0.000000  celldm(3)=   0.000000
     celldm(4)=   0.000000  celldm(5)=   0.000000  celldm(6)=   0.000000

     crystal axes: (cart. coord. in units of alat)
               a(1) = (  -0.500000   0.000000   0.500000 )  
               a(2) = (   0.000000   0.500000   0.500000 )  
               a(3) = (  -0.500000   0.500000   0.000000 )  

     reciprocal axes: (cart. coord. in units 2 pi/alat)
               b(1) = ( -1.000000 -1.000000  1.000000 )  
               b(2) = (  1.000000  1.000000  1.000000 )  
               b(3) = ( -1.000000  1.000000 -1.000000 )  


     PseudoPot. # 1 for Si read from file:
     ./UPF/Si.pz-vbc.UPF
     MD5 check sum: 6dfa03ddd5817404712e03e4d12deb78
     Pseudo is Norm-conserving, Zval =  4.0
     Generated by new atomic code, or converted to UPF format
     Using radial grid of  431 points,  2 beta functions with: 
                l(1) =   0
                l(2) =   1

     atomic species   valence    mass     pseudopotential
        Si             4.00    28.08600     Si( 1.00)

     48 Sym. Ops., with inversion, found



   Cartesian axes

     site n.     atom                  positions (alat units)
         1           Si  tau(   1) = (   0.0000000   0.0000000   0.0000000  )
         2           Si  tau(   2) = (   0.2500000   0.2500000   0.2500000  )

     number of k points=    52
                       cart. coord. in units 2pi/alat
        k(    1) = (   0.0000000   0.0000000   0.0000000), wk =   0.0312500
        k(    2) = (   0.6666667  -0.0000000   0.6666667), wk =   0.0000000
        k(    3) = (  -0.2500000   0.2500000  -0.2500000), wk =   0.0625000
        k(    4) = (   0.4166667   0.2500000   0.4166667), wk =   0.0000000
        k(    5) = (   0.5000000  -0.5000000   0.5000000), wk =   0.0625000
        k(    6) = (   1.1666667  -0.5000000   1.1666667), wk =   0.0000000
        k(    7) = (   0.0000000   0.5000000   0.0000000), wk =   0.0625000
        k(    8) = (   0.6666667   0.5000000   0.6666667), wk =   0.0000000
        k(    9) = (   0.7500000  -0.2500000   0.7500000), wk =   0.0625000
        k(   10) = (   1.4166667  -0.2500000   1.4166667), wk =   0.0000000
        k(   11) = (   0.5000000   0.0000000   0.5000000), wk =   0.0312500
        k(   12) = (   1.1666667  -0.0000000   1.1666667), wk =   0.0000000
        k(   13) = (   0.0000000  -1.0000000   0.0000000), wk =   0.0312500
        k(   14) = (   0.6666667  -1.0000000   0.6666667), wk =   0.0000000
        k(   15) = (  -0.5000000  -1.0000000   0.0000000), wk =   0.0625000
        k(   16) = (   0.1666667  -1.0000000   0.6666667), wk =   0.0000000
        k(   17) = (  -0.2500000   0.2500000   0.2500000), wk =   0.1250000
        k(   18) = (   0.4166667   0.2500000   0.9166667), wk =   0.0000000
        k(   19) = (   0.2500000   0.2500000   0.2500000), wk =   0.0625000
        k(   20) = (   0.9166667   0.2500000   0.9166667), wk =   0.0000000
        k(   21) = (   0.5000000  -0.5000000  -0.5000000), wk =   0.0625000
        k(   22) = (   1.1666667  -0.5000000   0.1666667), wk =   0.0000000
        k(   23) = (  -0.5000000   0.0000000   0.0000000), wk =   0.0625000
        k(   24) = (   0.1666667  -0.0000000   0.6666667), wk =   0.0000000
        k(   25) = (   0.0000000   0.0000000   0.5000000), wk =   0.0625000
        k(   26) = (   0.6666667  -0.0000000   1.1666667), wk =   0.0000000
        k(   27) = (   0.7500000  -0.2500000  -0.7500000), wk =   0.1250000
        k(   28) = (   1.4166667  -0.2500000  -0.0833333), wk =   0.0000000
        k(   29) = (  -0.7500000  -0.2500000  -0.7500000), wk =   0.0625000
        k(   30) = (  -0.0833333  -0.2500000  -0.0833333), wk =   0.0000000
        k(   31) = (   0.2500000  -0.7500000   0.7500000), wk =   0.1250000
        k(   32) = (   0.9166667  -0.7500000   1.4166667), wk =   0.0000000
        k(   33) = (  -0.7500000   0.7500000  -0.2500000), wk =   0.1250000
        k(   34) = (  -0.0833333   0.7500000   0.4166667), wk =   0.0000000
        k(   35) = (  -0.7500000  -0.7500000   0.2500000), wk =   0.1250000
        k(   36) = (  -0.0833333  -0.7500000   0.9166667), wk =   0.0000000
        k(   37) = (   0.7500000  -0.7500000  -0.2500000), wk =   0.1250000
        k(   38) = (   1.4166667  -0.7500000   0.4166667), wk =   0.0000000
        k(   39) = (   0.5000000   0.0000000  -0.5000000), wk =   0.0625000
        k(   40) = (   1.1666667  -0.0000000   0.1666667), wk =   0.0000000
        k(   41) = (  -0.5000000   0.0000000  -0.5000000), wk =   0.0312500
        k(   42) = (   0.1666667  -0.0000000   0.1666667), wk =   0.0000000
        k(   43) = (   0.0000000  -0.5000000   0.5000000), wk =   0.1250000
        k(   44) = (   0.6666667  -0.5000000   1.1666667), wk =   0.0000000
        k(   45) = (  -0.5000000   0.5000000   0.0000000), wk =   0.1250000
        k(   46) = (   0.1666667   0.5000000   0.6666667), wk =   0.0000000
        k(   47) = (   1.0000000   0.0000000   0.0000000), wk =   0.0625000
        k(   48) = (   1.6666667  -0.0000000   0.6666667), wk =   0.0000000
        k(   49) = (   0.0000000  -1.0000000   0.5000000), wk =   0.0625000
        k(   50) = (   0.6666667  -1.0000000   1.1666667), wk =   0.0000000
        k(   51) = (   0.0000000  -0.5000000  -1.0000000), wk =   0.0625000
        k(   52) = (   0.6666667  -0.5000000  -0.3333333), wk =   0.0000000

     Dense  grid:     4279 G-vectors     FFT dimensions: (  24,  24,  24)

     Largest allocated arrays     est. size (Mb)     dimensions
        Kohn-Sham Wavefunctions         0.03 Mb     (     544,    4)
        NL pseudopotentials             0.07 Mb     (     544,    8)
        Each V/rho on FFT grid          0.21 Mb     (   13824)
        Each G-vector array             0.03 Mb     (    4279)
        G-vector shells                 0.00 Mb     (      86)
     Largest temporary arrays     est. size (Mb)     dimensions
        Auxiliary wavefunctions         0.13 Mb     (     544,   16)
        Each subspace H/S matrix        0.00 Mb     (      16,   16)
        Each <psi_i|beta_j> matrix      0.00 Mb     (       8,    4)

     The potential is recalculated from file :
     ./tmp/_ph0/silicon.save/charge-density.dat

     Starting wfc are    8 atomic wfcs

     Band Structure Calculation
     Davidson diagonalization with overlap

     ethr =  1.25E-10,  avg # of iterations = 10.9

     total cpu time spent up to now is        2.6 secs

     End of band structure calculation

          k = 0.0000 0.0000 0.0000 (   531 PWs)   bands (ev):

    -5.7903   6.2775   6.2775   6.2775

          k = 0.6667-0.0000 0.6667 (   528 PWs)   bands (ev):

    -2.4504  -0.5183   1.7307   4.1182

          k =-0.2500 0.2500-0.2500 (   531 PWs)   bands (ev):

    -4.9756   2.3131   5.5019   5.5019

          k = 0.4167 0.2500 0.4167 (   527 PWs)   bands (ev):

    -4.0884   0.4961   4.3922   5.2674

          k = 0.5000-0.5000 0.5000 (   544 PWs)   bands (ev):

    -3.3938  -0.8001   5.0574   5.0574

          k = 1.1667-0.5000 1.1667 (   529 PWs)   bands (ev):

    -4.4667   1.8216   4.2469   4.4903

          k = 0.0000 0.5000 0.0000 (   528 PWs)   bands (ev):

    -4.6895   2.7859   4.3419   4.3419

          k = 0.6667 0.5000 0.6667 (   530 PWs)   bands (ev):

    -3.8699   0.1066   4.6766   4.8409

          k = 0.7500-0.2500 0.7500 (   529 PWs)   bands (ev):

    -3.0137  -0.1421   2.6549   4.0228

          k = 1.4167-0.2500 1.4167 (   527 PWs)   bands (ev):

    -3.1183  -0.5716   3.2268   4.6519

          k = 0.5000 0.0000 0.5000 (   524 PWs)   bands (ev):

    -3.7043   0.7809   2.4181   4.9226

          k = 1.1667-0.0000 1.1667 (   514 PWs)   bands (ev):

    -1.7030  -1.3071   2.3180   3.5580

          k = 0.0000-1.0000 0.0000 (   524 PWs)   bands (ev):

    -1.5717  -1.5717   3.3604   3.3604

          k = 0.6667-1.0000 0.6667 (   537 PWs)   bands (ev):

    -4.8234   2.5541   3.7951   5.7045

          k =-0.5000-1.0000 0.0000 (   516 PWs)   bands (ev):

    -1.3914  -1.3914   2.3060   2.3060

          k = 0.1667-1.0000 0.6667 (   519 PWs)   bands (ev):

    -2.4996  -0.3724   2.4008   3.0342

          k =-0.2500 0.2500 0.2500 (   531 PWs)   bands (ev):

    -4.9756   2.3131   5.5019   5.5019

          k = 0.4167 0.2500 0.9167 (   522 PWs)   bands (ev):

    -2.4445  -0.5622   1.9183   3.7923

          k = 0.2500 0.2500 0.2500 (   531 PWs)   bands (ev):

    -4.9756   2.3131   5.5019   5.5019

          k = 0.9167 0.2500 0.9167 (   529 PWs)   bands (ev):

    -3.3072   0.4817   3.2980   3.6583

          k = 0.5000-0.5000-0.5000 (   544 PWs)   bands (ev):

    -3.3938  -0.8001   5.0574   5.0574

          k = 1.1667-0.5000 0.1667 (   524 PWs)   bands (ev):

    -2.4386  -0.6038   2.1614   3.4358

          k =-0.5000 0.0000 0.0000 (   528 PWs)   bands (ev):

    -4.6895   2.7859   4.3419   4.3419

          k = 0.1667-0.0000 0.6667 (   529 PWs)   bands (ev):

    -3.7508   1.0984   3.3633   3.8047

          k = 0.0000 0.0000 0.5000 (   528 PWs)   bands (ev):

    -4.6895   2.7859   4.3419   4.3419

          k = 0.6667-0.0000 1.1667 (   525 PWs)   bands (ev):

    -1.9091  -1.0029   1.8956   3.4312

          k = 0.7500-0.2500-0.7500 (   529 PWs)   bands (ev):

    -3.0137  -0.1421   2.6549   4.0228

          k = 1.4167-0.2500-0.0833 (   529 PWs)   bands (ev):

    -4.0325   1.2965   3.3387   4.3157

          k =-0.7500-0.2500-0.7500 (   529 PWs)   bands (ev):

    -3.0137  -0.1421   2.6549   4.0228

          k =-0.0833-0.2500-0.0833 (   535 PWs)   bands (ev):

    -5.4521   4.3480   5.4615   5.6661

          k = 0.2500-0.7500 0.7500 (   529 PWs)   bands (ev):

    -3.0137  -0.1421   2.6549   4.0228

          k = 0.9167-0.7500 1.4167 (   531 PWs)   bands (ev):

    -4.7335   2.2925   4.0578   5.2787

          k =-0.7500 0.7500-0.2500 (   529 PWs)   bands (ev):

    -3.0137  -0.1421   2.6549   4.0228

          k =-0.0833 0.7500 0.4167 (   526 PWs)   bands (ev):

    -2.8135  -0.1579   2.2536   3.5703

          k =-0.7500-0.7500 0.2500 (   529 PWs)   bands (ev):

    -3.0137  -0.1421   2.6549   4.0228

          k =-0.0833-0.7500 0.9167 (   519 PWs)   bands (ev):

    -2.0777  -0.8807   2.4149   3.2286

          k = 0.7500-0.7500-0.2500 (   529 PWs)   bands (ev):

    -3.0137  -0.1421   2.6549   4.0228

          k = 1.4167-0.7500 0.4167 (   530 PWs)   bands (ev):

    -3.5035  -0.1561   3.6669   4.6872

          k = 0.5000 0.0000-0.5000 (   524 PWs)   bands (ev):

    -3.7043   0.7809   2.4181   4.9226

          k = 1.1667-0.0000 0.1667 (   522 PWs)   bands (ev):

    -2.7234  -0.2284   3.0727   3.2735

          k =-0.5000 0.0000-0.5000 (   524 PWs)   bands (ev):

    -3.7043   0.7809   2.4181   4.9226

          k = 0.1667-0.0000 0.1667 (   533 PWs)   bands (ev):

    -5.5442   4.6903   5.3856   6.1591

          k = 0.0000-0.5000 0.5000 (   524 PWs)   bands (ev):

    -3.7043   0.7809   2.4181   4.9226

          k = 0.6667-0.5000 1.1667 (   523 PWs)   bands (ev):

    -4.1448   0.9628   3.7912   4.9420

          k =-0.5000 0.5000 0.0000 (   524 PWs)   bands (ev):

    -3.7043   0.7809   2.4181   4.9226

          k = 0.1667 0.5000 0.6667 (   528 PWs)   bands (ev):

    -3.0144  -0.3253   2.6074   4.2563

          k = 1.0000 0.0000 0.0000 (   524 PWs)   bands (ev):

    -1.5717  -1.5717   3.3604   3.3604

          k = 1.6667-0.0000 0.6667 (   535 PWs)   bands (ev):

    -3.4555   0.6283   2.6072   3.9201

          k = 0.0000-1.0000 0.5000 (   516 PWs)   bands (ev):

    -1.3914  -1.3914   2.3060   2.3060

          k = 0.6667-1.0000 1.1667 (   530 PWs)   bands (ev):

    -5.1785   3.5546   4.5959   5.5612

          k = 0.0000-0.5000-1.0000 (   516 PWs)   bands (ev):

    -1.3914  -1.3914   2.3060   2.3060

          k = 0.6667-0.5000-0.3333 (   530 PWs)   bands (ev):

    -3.1490  -0.6738   3.6329   4.5926

     highest occupied level (ev):     6.2775

     Writing output data file silicon.save

                                                                                

     bravais-lattice index     =            2
     lattice parameter (alat)  =      10.2000  a.u.
     unit-cell volume          =     265.3020 (a.u.)^3
     number of atoms/cell      =            2
     number of atomic types    =            1
     kinetic-energy cut-off    =      24.0000  Ry
     charge density cut-off    =      96.0000  Ry
     convergence threshold     =      1.0E-06
     beta                      =       0.7000
     number of iterations used =            4
     Exchange-correlation      =  SLA  PZ   NOGX NOGC ( 1  1  0  0 0 0)


     celldm(1)=   10.20000  celldm(2)=    0.00000  celldm(3)=    0.00000
     celldm(4)=    0.00000  celldm(5)=    0.00000  celldm(6)=    0.00000

     crystal axes: (cart. coord. in units of alat)
               a(1) = ( -0.5000  0.0000  0.5000 )  
               a(2) = (  0.0000  0.5000  0.5000 )  
               a(3) = ( -0.5000  0.5000  0.0000 )  

     reciprocal axes: (cart. coord. in units 2 pi/alat)
               b(1) = ( -1.0000 -1.0000  1.0000 )  
               b(2) = (  1.0000  1.0000  1.0000 )  
               b(3) = ( -1.0000  1.0000 -1.0000 )  


     Atoms inside the unit cell: 

     Cartesian axes

     site n.  atom      mass           positions (alat units)
        1     Si  28.0860   tau(    1) = (    0.00000    0.00000    0.00000  )
        2     Si  28.0860   tau(    2) = (    0.25000    0.25000    0.25000  )

     Computing dynamical matrix for 
                    q = (   0.6666667  -0.0000000   0.6666667 )

      4 Sym.Ops. (no q -> -q+G )


     G cutoff =  252.9949  (   4279 G-vectors)     FFT grid: ( 24, 24, 24)
     number of k points=    52

     PseudoPot. # 1 for Si read from file:
     ./UPF/Si.pz-vbc.UPF
     MD5 check sum: 6dfa03ddd5817404712e03e4d12deb78
     Pseudo is Norm-conserving, Zval =  4.0
     Generated by new atomic code, or converted to UPF format
     Using radial grid of  431 points,  2 beta functions with: 
                l(1) =   0
                l(2) =   1

     Mode symmetry, C_2v (mm2)  point group:


     Atomic displacements:
     There are   6 irreducible representations

     Representation     1      1 modes -A_1  D_1  S_1  To be done

     Representation     2      1 modes -A_1  D_1  S_1  To be done

     Representation     3      1 modes -A_2  D_2  S_2  To be done

     Representation     4      1 modes -B_1  D_3  S_3  To be done

     Representation     5      1 modes -B_2  D_4  S_4  To be done

     Representation     6      1 modes -B_2  D_4  S_4  To be done



     Alpha used in Ewald sum =   1.0000
     PHONON       :     9.76s CPU         9.95s WALL



     Representation #  1 mode #   1

     Self-consistent Calculation

      iter #   1 total cpu time :    10.2 secs   av.it.:   5.6
      thresh= 1.000E-02 alpha_mix =  0.700 |ddv_scf|^2 =  3.971E-05

      iter #   2 total cpu time :    10.6 secs   av.it.:   8.8
      thresh= 6.301E-04 alpha_mix =  0.700 |ddv_scf|^2 =  7.273E-05

      iter #   3 total cpu time :    11.0 secs   av.it.:   7.9
      thresh= 8.528E-04 alpha_mix =  0.700 |ddv_scf|^2 =  3.097E-07

     End of self-consistent calculation

     Convergence has been achieved 


     Representation #  2 mode #   2

     Self-consistent Calculation

      iter #   1 total cpu time :    11.3 secs   av.it.:   5.9
      thresh= 1.000E-02 alpha_mix =  0.700 |ddv_scf|^2 =  5.673E-05

      iter #   2 total cpu time :    11.7 secs   av.it.:   8.8
      thresh= 7.532E-04 alpha_mix =  0.700 |ddv_scf|^2 =  9.251E-05

      iter #   3 total cpu time :    12.0 secs   av.it.:   8.0
      thresh= 9.618E-04 alpha_mix =  0.700 |ddv_scf|^2 =  8.713E-07

     End of self-consistent calculation

     Convergence has been achieved 


     Representation #  3 mode #   3

     Self-consistent Calculation

      iter #   1 total cpu time :    12.3 secs   av.it.:   5.2
      thresh= 1.000E-02 alpha_mix =  0.700 |ddv_scf|^2 =  5.391E-06

      iter #   2 total cpu time :    12.7 secs   av.it.:   8.5
      thresh= 2.322E-04 alpha_mix =  0.700 |ddv_scf|^2 =  9.780E-07

     End of self-consistent calculation

     Convergence has been achieved 


     Representation #  4 mode #   4

     Self-consistent Calculation

      iter #   1 total cpu time :    13.0 secs   av.it.:   4.6
      thresh= 1.000E-02 alpha_mix =  0.700 |ddv_scf|^2 =  1.021E-07

     End of self-consistent calculation

     Convergence has been achieved 


     Representation #  5 mode #   5

     Self-consistent Calculation

      iter #   1 total cpu time :    13.2 secs   av.it.:   5.1
      thresh= 1.000E-02 alpha_mix =  0.700 |ddv_scf|^2 =  7.687E-06

      iter #   2 total cpu time :    13.6 secs   av.it.:   8.8
      thresh= 2.773E-04 alpha_mix =  0.700 |ddv_scf|^2 =  1.046E-05

      iter #   3 total cpu time :    14.0 secs   av.it.:   8.2
      thresh= 3.234E-04 alpha_mix =  0.700 |ddv_scf|^2 =  9.774E-10

     End of self-consistent calculation

     Convergence has been achieved 


     Representation #  6 mode #   6

     Self-consistent Calculation

      iter #   1 total cpu time :    14.3 secs   av.it.:   5.5
      thresh= 1.000E-02 alpha_mix =  0.700 |ddv_scf|^2 =  2.505E-05

      iter #   2 total cpu time :    14.7 secs   av.it.:   8.7
      thresh= 5.005E-04 alpha_mix =  0.700 |ddv_scf|^2 =  3.225E-05

      iter #   3 total cpu time :    15.0 secs   av.it.:   8.2
      thresh= 5.679E-04 alpha_mix =  0.700 |ddv_scf|^2 =  1.408E-08

     End of self-consistent calculation

     Convergence has been achieved 

     Number of q in the star =   12
     List of q in the star:
          1   0.666666667   0.000000000   0.666666667
          2   0.666666667   0.000000000  -0.666666667
          3  -0.666666667   0.000000000  -0.666666667
          4  -0.666666667   0.000000000   0.666666667
          5   0.000000000  -0.666666667   0.666666667
          6  -0.666666667   0.666666667   0.000000000
          7  -0.666666667  -0.666666667   0.000000000
          8   0.666666667   0.666666667   0.000000000
          9   0.666666667  -0.666666667   0.000000000
         10   0.000000000   0.666666667   0.666666667
         11   0.000000000   0.666666667  -0.666666667
         12   0.000000000  -0.666666667  -0.666666667

     Diagonalizing the dynamical matrix

     q = (    0.666666667  -0.000000000   0.666666667 ) 

 **************************************************************************
     freq (    1) =      -3.109925 [THz] =    -103.735930 [cm-1]
     freq (    2) =      -2.618024 [THz] =     -87.327895 [cm-1]
     freq (    3) =       7.461728 [THz] =     248.896453 [cm-1]
     freq (    4) =      10.594687 [THz] =     353.400707 [cm-1]
     freq (    5) =      20.186724 [THz] =     673.356617 [cm-1]
     freq (    6) =      23.011631 [THz] =     767.585375 [cm-1]
 **************************************************************************

     Mode symmetry, C_2v (mm2)  point group:

     freq (  1 -  1) =       -103.7  [cm-1]   --> A_1  D_1  S_1      
     freq (  2 -  2) =        -87.3  [cm-1]   --> B_1  D_3  S_3      
     freq (  3 -  3) =        248.9  [cm-1]   --> B_2  D_4  S_4      
     freq (  4 -  4) =        353.4  [cm-1]   --> B_2  D_4  S_4      
     freq (  5 -  5) =        673.4  [cm-1]   --> A_1  D_1  S_1      
     freq (  6 -  6) =        767.6  [cm-1]   --> A_2  D_2  S_2      

     Number of q in the star =   12
     List of q in the star:
          1   0.666666667   0.000000000   0.666666667
          2   0.666666667   0.000000000  -0.666666667
          3  -0.666666667   0.000000000  -0.666666667
          4  -0.666666667   0.000000000   0.666666667
          5   0.000000000  -0.666666667   0.666666667
          6  -0.666666667   0.666666667   0.000000000
          7  -0.666666667  -0.666666667   0.000000000
          8   0.666666667   0.666666667   0.000000000
          9   0.666666667  -0.666666667   0.000000000
         10   0.000000000   0.666666667   0.666666667
         11   0.000000000   0.666666667  -0.666666667
         12   0.000000000  -0.666666667  -0.666666667
       Writing drho for q = (  0.666667  0.000000  0.666667) on file "drho.0_1o3_-1o3"
       Writing drho for q = (  0.666667  0.000000 -0.666667) on file "drho.-2o3_-1o3_-1o3"
       Writing drho for q = ( -0.666667  0.000000 -0.666667) on file "drho.0_-1o3_1o3"
       Writing drho for q = ( -0.666667  0.000000  0.666667) on file "drho.2o3_1o3_1o3"
       Writing drho for q = (  0.000000 -0.666667  0.666667) on file "drho.1o3_0_-1o3"
       Writing drho for q = ( -0.666667  0.666667  0.000000) on file "drho.1o3_1o3_2o3"
       Writing drho for q = ( -0.666667 -0.666667  0.000000) on file "drho.1o3_-1o3_0"
       Writing drho for q = (  0.666667  0.666667  0.000000) on file "drho.-1o3_1o3_0"
       Writing drho for q = (  0.666667 -0.666667  0.000000) on file "drho.-1o3_-1o3_-2o3"
       Writing drho for q = (  0.000000  0.666667  0.666667) on file "drho.1o3_2o3_1o3"
       Writing drho for q = (  0.000000  0.666667 -0.666667) on file "drho.-1o3_0_1o3"
       Writing drho for q = (  0.000000 -0.666667 -0.666667) on file "drho.-1o3_-2o3_-1o3"

     init_run     :      0.10s CPU      0.10s WALL (       3 calls)
     electrons    :      2.25s CPU      2.29s WALL (       3 calls)

     Called by init_run:
     wfcinit      :      0.00s CPU      0.00s WALL (       3 calls)
     potinit      :      0.01s CPU      0.01s WALL (       3 calls)

     Called by electrons:
     c_bands      :      2.25s CPU      2.29s WALL (       3 calls)
     v_of_rho     :      0.01s CPU      0.01s WALL (       4 calls)

     Called by c_bands:
     init_us_2    :      0.10s CPU      0.12s WALL (    1356 calls)
     cegterg      :      1.87s CPU      1.93s WALL (     128 calls)

     Called by sum_band:

     Called by *egterg:
     h_psi        :      1.94s CPU      1.95s WALL (    1646 calls)
     g_psi        :      0.02s CPU      0.02s WALL (    1390 calls)
     cdiaghg      :      0.05s CPU      0.06s WALL (    1518 calls)

     Called by h_psi:
     add_vuspsi   :      0.18s CPU      0.20s WALL (    9151 calls)

     General routines
     calbec       :      0.47s CPU      0.43s WALL (   19128 calls)
     fft          :      0.03s CPU      0.03s WALL (     154 calls)
     ffts         :      0.07s CPU      0.09s WALL (     576 calls)
     fftw         :     10.30s CPU     10.42s WALL (   80588 calls)
     davcio       :      0.06s CPU      0.06s WALL (    5153 calls)

     Parallel routines
     fft_scatter  :      0.68s CPU      0.70s WALL (   81318 calls)

     PHONON       :    14.81s CPU        15.08s WALL

     INITIALIZATION: 
     phq_setup    :      0.02s CPU      0.02s WALL (       4 calls)
     phq_init     :      0.42s CPU      0.42s WALL (       4 calls)

     phq_init     :      0.42s CPU      0.42s WALL (       4 calls)
     init_vloc    :      0.00s CPU      0.01s WALL (       4 calls)
     init_us_1    :      0.06s CPU      0.05s WALL (       4 calls)

     DYNAMICAL MATRIX:
     dynmat0      :      0.09s CPU      0.09s WALL (       4 calls)
     phqscf       :     10.58s CPU     10.75s WALL (       4 calls)
     dynmatrix    :      0.00s CPU      0.01s WALL (       4 calls)

     phqscf       :     10.58s CPU     10.75s WALL (       4 calls)
     solve_linter :     10.44s CPU     10.61s WALL (      16 calls)
     drhodv       :      0.10s CPU      0.11s WALL (      16 calls)

     dynmat0      :      0.09s CPU      0.09s WALL (       4 calls)
     dynmat_us    :      0.07s CPU      0.07s WALL (       4 calls)
     d2ionq       :      0.01s CPU      0.01s WALL (       4 calls)

     dynmat_us    :      0.07s CPU      0.07s WALL (       4 calls)

     phqscf       :     10.58s CPU     10.75s WALL (       4 calls)
     solve_linter :     10.44s CPU     10.61s WALL (      16 calls)

     solve_linter :     10.44s CPU     10.61s WALL (      16 calls)
     dvqpsi_us    :      0.74s CPU      0.74s WALL (     480 calls)
     ortho        :      0.02s CPU      0.03s WALL (     902 calls)
     cgsolve      :      8.55s CPU      8.75s WALL (     902 calls)
     incdrhoscf   :      1.13s CPU      1.04s WALL (     878 calls)
     vpsifft      :      0.48s CPU      0.51s WALL (     422 calls)
     dv_of_drho   :      0.03s CPU      0.03s WALL (      46 calls)
     mix_pot      :      0.01s CPU      0.01s WALL (      35 calls)
     psymdvscf    :      0.19s CPU      0.19s WALL (      34 calls)

     dvqpsi_us    :      0.74s CPU      0.74s WALL (     480 calls)
     dvqpsi_us_on :      0.05s CPU      0.05s WALL (     480 calls)

     cgsolve      :      8.55s CPU      8.75s WALL (     902 calls)
     ch_psi       :      8.35s CPU      8.57s WALL (    7505 calls)

     ch_psi       :      8.35s CPU      8.57s WALL (    7505 calls)
     h_psiq       :      7.91s CPU      8.11s WALL (    7505 calls)
     last         :      0.41s CPU      0.42s WALL (    7505 calls)

     h_psiq       :      7.91s CPU      8.11s WALL (    7505 calls)
     firstfft     :      3.48s CPU      3.54s WALL (   26713 calls)
     secondfft    :      3.58s CPU      3.71s WALL (   26713 calls)
     add_vuspsi   :      0.18s CPU      0.20s WALL (    9151 calls)

     incdrhoscf   :      1.13s CPU      1.04s WALL (     878 calls)


      General routines
     calbec       :      0.47s CPU      0.43s WALL (   19128 calls)
     fft          :      0.03s CPU      0.03s WALL (     154 calls)
     ffts         :      0.07s CPU      0.09s WALL (     576 calls)
     fftw         :     10.30s CPU     10.42s WALL (   80588 calls)
     davcio       :      0.06s CPU      0.06s WALL (    5153 calls)
     write_rec    :      0.06s CPU      0.08s WALL (      51 calls)


     PHONON       :    14.81s CPU        15.08s WALL


   This run was terminated on:  17: 9: 5  20Jul2016            

=------------------------------------------------------------------------------=
   JOB DONE.
=------------------------------------------------------------------------------=
