
     Program PHONON v.6.beta (svn rev. 12981M) starts on 23Sep2016 at 16:51:21 

     This program is part of the open-source Quantum ESPRESSO suite
     for quantum simulation of materials; please cite
         "P. Giannozzi et al., J. Phys.:Condens. Matter 21 395502 (2009);
          URL http://www.quantum-espresso.org", 
     in publications or presentations arising from this work. More details at
     http://www.quantum-espresso.org/quote
 
           HOST :    @host@
           ARCH :    x86_64
             CC :    cc
            CPP :    cpp
            F90 :    mpif90
            F77 :    ifort
         DFLAGS :    -D__INTEL -D__FFTW3 -D__MPI -D__PARA
      BLAS LIBS :    -lmkl_intel_lp64  -lmkl_sequential -lmkl_core
    LAPACK LIBS :    
       FFT LIBS :    -lfftw3
      MASS LIBS :    

     Parallel version (MPI), running on     1 processors

     Reading data from directory:
     ./tmp/silicon.save

   Info: using nr1, nr2, nr3 values from input

   Info: using nr1, nr2, nr3 values from input

     IMPORTANT: XC functional enforced from input :
     Exchange-correlation      = LDA ( 1  1  0  0 0 0)
     Any further DFT definition will be discarded
     Please, verify this is what you really want

 
     G-vector sticks info
     --------------------
     sticks:   dense  smooth     PW     G-vecs:    dense   smooth      PW
     Sum         349     349    109                 4279     4279     749
 


     Dynamical matrices for ( 4, 4, 4)  uniform grid of q-points
     (   8q-points):
       N         xq(1)         xq(2)         xq(3) 
       1   0.000000000   0.000000000   0.000000000
       2  -0.250000000   0.250000000  -0.250000000
       3   0.500000000  -0.500000000   0.500000000
       4   0.000000000   0.500000000   0.000000000
       5   0.750000000  -0.250000000   0.750000000
       6   0.500000000   0.000000000   0.500000000
       7   0.000000000  -1.000000000   0.000000000
       8  -0.500000000  -1.000000000   0.000000000
   -1.282025   -1.282025      -1.282025    4.147549       4.147549    4.147549

   -8.582230   -1.101554      -1.101554    2.770778       8.312821    8.312821

   -5.907102    0.867159       1.030513    1.030513       5.787744    5.787744

   -4.438242   -4.438242      -0.095765    1.669075       7.949873    7.949873

   -9.076497   -4.367461      -0.749014    5.684146       6.519196   10.600713

   -5.653868   -5.438460       0.750307    4.210414       6.060692    8.667487

    0.468543    0.468543       0.786655    0.786655       3.043088    3.043088

   -2.041922   -2.041922       0.740934    0.740934       5.599273    5.599273


     Calculation of q =    0.0000000   0.0000000   0.0000000

                                                                                

     bravais-lattice index     =            2
     lattice parameter (alat)  =      10.2000  a.u.
     unit-cell volume          =     265.3020 (a.u.)^3
     number of atoms/cell      =            2
     number of atomic types    =            1
     kinetic-energy cut-off    =      24.0000  Ry
     charge density cut-off    =      96.0000  Ry
     convergence threshold     =      1.0E-16
     beta                      =       0.7000
     number of iterations used =            4
     Exchange-correlation      = LDA ( 1  1  0  0 0 0)


     celldm(1)=   10.20000  celldm(2)=    0.00000  celldm(3)=    0.00000
     celldm(4)=    0.00000  celldm(5)=    0.00000  celldm(6)=    0.00000

     crystal axes: (cart. coord. in units of alat)
               a(1) = ( -0.5000  0.0000  0.5000 )  
               a(2) = (  0.0000  0.5000  0.5000 )  
               a(3) = ( -0.5000  0.5000  0.0000 )  

     reciprocal axes: (cart. coord. in units 2 pi/alat)
               b(1) = ( -1.0000 -1.0000  1.0000 )  
               b(2) = (  1.0000  1.0000  1.0000 )  
               b(3) = ( -1.0000  1.0000 -1.0000 )  


     Atoms inside the unit cell: 

     Cartesian axes

     site n.  atom      mass           positions (alat units)
        1     Si  28.0860   tau(    1) = (    0.00000    0.00000    0.00000  )
        2     Si  28.0860   tau(    2) = (    0.25000    0.25000    0.25000  )

     Computing dynamical matrix for 
                    q = (   0.0000000   0.0000000   0.0000000 )
 
     49 Sym.Ops. (with q -> -q+G )


     G cutoff =  252.9949  (   4279 G-vectors)     FFT grid: ( 24, 24, 24)
     number of k points=     8

     PseudoPot. # 1 for Si read from file:
     ./UPF/Si.pz-rrkj.UPF
     MD5 check sum: 884b380b739b48e9cd334294cddc9a8d
     Pseudo is Norm-conserving, Zval =  4.0
     Generated using "atomic" code by A. Dal Corso (espresso distribution)
     Using radial grid of 1141 points,  2 beta functions with: 
                l(1) =   0
                l(2) =   1

     Mode symmetry, O_h (m-3m)  point group:


     Electric field:
     Dielectric constant
     Born effective charges in two ways 


     Atomic displacements:
     There are   2 irreducible representations

     Representation     1      3 modes -T_2g G_25' G_5+  To be done

     Representation     2      3 modes -T_1u G_15  G_4-  To be done



     Alpha used in Ewald sum =   1.0000
     PHONON       :     0.42s CPU         0.42s WALL


     Electric Fields Calculation

      iter #   1 total cpu time :     1.2 secs   av.it.:   5.7
      thresh= 1.000E-02 alpha_mix =  0.700 |ddv_scf|^2 =  5.773E-07

      iter #   2 total cpu time :     1.6 secs   av.it.:   9.0
      thresh= 7.598E-05 alpha_mix =  0.700 |ddv_scf|^2 =  2.533E-08

      iter #   3 total cpu time :     2.0 secs   av.it.:   9.1
      thresh= 1.592E-05 alpha_mix =  0.700 |ddv_scf|^2 =  4.456E-10

      iter #   4 total cpu time :     2.4 secs   av.it.:   9.2
      thresh= 2.111E-06 alpha_mix =  0.700 |ddv_scf|^2 =  2.295E-12

      iter #   5 total cpu time :     2.7 secs   av.it.:   8.9
      thresh= 1.515E-07 alpha_mix =  0.700 |ddv_scf|^2 =  9.524E-16

      iter #   6 total cpu time :     3.1 secs   av.it.:   9.0
      thresh= 3.086E-09 alpha_mix =  0.700 |ddv_scf|^2 =  1.363E-17

     End of electric fields calculation

          Dielectric constant in cartesian axis 

          (      24.590147360       0.000000000       0.000000000 )
          (       0.000000000      24.590147360      -0.000000000 )
          (       0.000000000       0.000000000      24.590147360 )

          Effective charges (d Force / dE) in cartesian axis

           atom      1   Si 
      Ex  (       -1.22722        0.00000        0.00000 )
      Ey  (        0.00000       -1.22722       -0.00000 )
      Ez  (        0.00000       -0.00000       -1.22722 )
           atom      2   Si 
      Ex  (       -1.22722       -0.00000        0.00000 )
      Ey  (       -0.00000       -1.22722       -0.00000 )
      Ez  (        0.00000       -0.00000       -1.22722 )

     Calling punch_plot_e
     Writing on file  drho                                                                                                                                                                                                                                                            


     Representation #  1 modes #   1  2  3

     Self-consistent Calculation

      iter #   1 total cpu time :     3.4 secs   av.it.:   4.9
      thresh= 1.000E-02 alpha_mix =  0.700 |ddv_scf|^2 =  1.091E-07

      iter #   2 total cpu time :     3.8 secs   av.it.:   8.7
      thresh= 3.302E-05 alpha_mix =  0.700 |ddv_scf|^2 =  1.846E-09

      iter #   3 total cpu time :     4.2 secs   av.it.:   8.9
      thresh= 4.297E-06 alpha_mix =  0.700 |ddv_scf|^2 =  2.622E-11

      iter #   4 total cpu time :     4.6 secs   av.it.:   8.2
      thresh= 5.121E-07 alpha_mix =  0.700 |ddv_scf|^2 =  1.732E-14

      iter #   5 total cpu time :     4.9 secs   av.it.:   9.0
      thresh= 1.316E-08 alpha_mix =  0.700 |ddv_scf|^2 =  1.215E-16

      iter #   6 total cpu time :     5.3 secs   av.it.:   8.8
      thresh= 1.102E-09 alpha_mix =  0.700 |ddv_scf|^2 =  1.970E-18

     End of self-consistent calculation

     Convergence has been achieved 


     Representation #  2 modes #   4  5  6

     Self-consistent Calculation

      iter #   1 total cpu time :     5.6 secs   av.it.:   5.1
      thresh= 1.000E-02 alpha_mix =  0.700 |ddv_scf|^2 =  8.091E-08

      iter #   2 total cpu time :     6.0 secs   av.it.:   9.5
      thresh= 2.844E-05 alpha_mix =  0.700 |ddv_scf|^2 =  3.345E-09

      iter #   3 total cpu time :     6.4 secs   av.it.:   9.4
      thresh= 5.783E-06 alpha_mix =  0.700 |ddv_scf|^2 =  3.513E-11

      iter #   4 total cpu time :     6.8 secs   av.it.:   9.2
      thresh= 5.927E-07 alpha_mix =  0.700 |ddv_scf|^2 =  7.362E-14

      iter #   5 total cpu time :     7.2 secs   av.it.:   9.5
      thresh= 2.713E-08 alpha_mix =  0.700 |ddv_scf|^2 =  1.081E-15

      iter #   6 total cpu time :     7.5 secs   av.it.:   9.3
      thresh= 3.288E-09 alpha_mix =  0.700 |ddv_scf|^2 =  5.839E-19

     End of self-consistent calculation

     Convergence has been achieved 
 
     Number of q in the star =    1
     List of q in the star:
          1   0.000000000   0.000000000   0.000000000

          Dielectric constant in cartesian axis 

          (      24.590147360       0.000000000       0.000000000 )
          (       0.000000000      24.590147360      -0.000000000 )
          (       0.000000000       0.000000000      24.590147360 )

          Effective charges (d Force / dE) in cartesian axis

           atom      1   Si 
      Ex  (       -1.22722        0.00000        0.00000 )
      Ey  (        0.00000       -1.22722       -0.00000 )
      Ez  (        0.00000       -0.00000       -1.22722 )
           atom      2   Si 
      Ex  (       -1.22722       -0.00000        0.00000 )
      Ey  (       -0.00000       -1.22722       -0.00000 )
      Ez  (        0.00000       -0.00000       -1.22722 )

          Effective charges (d P / du) in cartesian axis 

           atom      1   Si 
      Px  (       -1.22722       -0.00000       -0.00000 )
      Py  (       -0.00000       -1.22722       -0.00000 )
      Pz  (       -0.00000       -0.00000       -1.22722 )
           atom      2   Si 
      Px  (       -1.22722        0.00000        0.00000 )
      Py  (        0.00000       -1.22722       -0.00000 )
      Pz  (        0.00000       -0.00000       -1.22722 )

     Diagonalizing the dynamical matrix

     q = (    0.000000000   0.000000000   0.000000000 ) 

 **************************************************************************
     freq (    1) =       0.127761 [THz] =       4.261662 [cm-1]
     freq (    2) =       0.127761 [THz] =       4.261662 [cm-1]
     freq (    3) =       0.127761 [THz] =       4.261662 [cm-1]
     freq (    4) =      15.524746 [THz] =     517.849778 [cm-1]
     freq (    5) =      15.524746 [THz] =     517.849778 [cm-1]
     freq (    6) =      15.524746 [THz] =     517.849778 [cm-1]
 **************************************************************************

     Mode symmetry, O_h (m-3m)  point group:

     freq (  1 -  3) =          4.3  [cm-1]   --> T_1u G_15  G_4- I  
     freq (  4 -  6) =        517.8  [cm-1]   --> T_2g G_25' G_5+ R  
 
     Number of q in the star =    1
     List of q in the star:
          1   0.000000000   0.000000000   0.000000000
       Writing drho for q = (  0.000000  0.000000  0.000000) on file "drho.0_0_0"

     Calculation of q =   -0.2500000   0.2500000  -0.2500000
 
     G-vector sticks info
     --------------------
     sticks:   dense  smooth     PW     G-vecs:    dense   smooth      PW
     Sum         349     349    121                 4279     4279     893
 


     bravais-lattice index     =            2
     lattice parameter (alat)  =      10.2000  a.u.
     unit-cell volume          =     265.3020 (a.u.)^3
     number of atoms/cell      =            2
     number of atomic types    =            1
     number of electrons       =         8.00
     number of Kohn-Sham states=            4
     kinetic-energy cutoff     =      24.0000  Ry
     charge density cutoff     =      96.0000  Ry
     Exchange-correlation      = LDA ( 1  1  0  0 0 0)

     celldm(1)=  10.200000  celldm(2)=   0.000000  celldm(3)=   0.000000
     celldm(4)=   0.000000  celldm(5)=   0.000000  celldm(6)=   0.000000

     crystal axes: (cart. coord. in units of alat)
               a(1) = (  -0.500000   0.000000   0.500000 )  
               a(2) = (   0.000000   0.500000   0.500000 )  
               a(3) = (  -0.500000   0.500000   0.000000 )  

     reciprocal axes: (cart. coord. in units 2 pi/alat)
               b(1) = ( -1.000000 -1.000000  1.000000 )  
               b(2) = (  1.000000  1.000000  1.000000 )  
               b(3) = ( -1.000000  1.000000 -1.000000 )  


     PseudoPot. # 1 for Si read from file:
     ./UPF/Si.pz-rrkj.UPF
     MD5 check sum: 884b380b739b48e9cd334294cddc9a8d
     Pseudo is Norm-conserving, Zval =  4.0
     Generated using "atomic" code by A. Dal Corso (espresso distribution)
     Using radial grid of 1141 points,  2 beta functions with: 
                l(1) =   0
                l(2) =   1

     atomic species   valence    mass     pseudopotential
        Si             4.00    28.08600     Si( 1.00)

     48 Sym. Ops., with inversion, found



   Cartesian axes

     site n.     atom                  positions (alat units)
         1           Si  tau(   1) = (   0.0000000   0.0000000   0.0000000  )
         2           Si  tau(   2) = (   0.2500000   0.2500000   0.2500000  )

     number of k points=    40
                       cart. coord. in units 2pi/alat
        k(    1) = (   0.0000000   0.0000000   0.0000000), wk =   0.0312500
        k(    2) = (  -0.2500000   0.2500000  -0.2500000), wk =   0.0000000
        k(    3) = (  -0.2500000   0.2500000  -0.2500000), wk =   0.0312500
        k(    4) = (  -0.5000000   0.5000000  -0.5000000), wk =   0.0000000
        k(    5) = (   0.5000000  -0.5000000   0.5000000), wk =   0.0312500
        k(    6) = (   0.2500000  -0.2500000   0.2500000), wk =   0.0000000
        k(    7) = (   0.0000000   0.5000000   0.0000000), wk =   0.0937500
        k(    8) = (  -0.2500000   0.7500000  -0.2500000), wk =   0.0000000
        k(    9) = (   0.7500000  -0.2500000   0.7500000), wk =   0.0937500
        k(   10) = (   0.5000000   0.0000000   0.5000000), wk =   0.0000000
        k(   11) = (   0.5000000   0.0000000   0.5000000), wk =   0.0937500
        k(   12) = (   0.2500000   0.2500000   0.2500000), wk =   0.0000000
        k(   13) = (   0.0000000  -1.0000000   0.0000000), wk =   0.0937500
        k(   14) = (  -0.2500000  -0.7500000  -0.2500000), wk =   0.0000000
        k(   15) = (  -0.5000000  -1.0000000   0.0000000), wk =   0.1875000
        k(   16) = (  -0.7500000  -0.7500000  -0.2500000), wk =   0.0000000
        k(   17) = (   0.2500000  -0.2500000  -0.2500000), wk =   0.0937500
        k(   18) = (   0.0000000   0.0000000  -0.5000000), wk =   0.0000000
        k(   19) = (   0.2500000  -0.2500000   0.2500000), wk =   0.0312500
        k(   20) = (   0.0000000   0.0000000   0.0000000), wk =   0.0000000
        k(   21) = (  -0.2500000  -0.2500000  -0.2500000), wk =   0.0937500
        k(   22) = (  -0.5000000   0.0000000  -0.5000000), wk =   0.0000000
        k(   23) = (  -0.5000000   0.5000000   0.5000000), wk =   0.0937500
        k(   24) = (  -0.7500000   0.7500000   0.2500000), wk =   0.0000000
        k(   25) = (   0.0000000   0.0000000   0.5000000), wk =   0.0937500
        k(   26) = (  -0.2500000   0.2500000   0.2500000), wk =   0.0000000
        k(   27) = (  -0.7500000   0.7500000   0.2500000), wk =   0.0937500
        k(   28) = (  -1.0000000   1.0000000   0.0000000), wk =   0.0000000
        k(   29) = (  -0.7500000   0.7500000  -0.2500000), wk =   0.0937500
        k(   30) = (  -1.0000000   1.0000000  -0.5000000), wk =   0.0000000
        k(   31) = (  -0.7500000   0.2500000   0.7500000), wk =   0.1875000
        k(   32) = (  -1.0000000   0.5000000   0.5000000), wk =   0.0000000
        k(   33) = (   0.7500000   0.2500000   0.7500000), wk =   0.0937500
        k(   34) = (   0.5000000   0.5000000   0.5000000), wk =   0.0000000
        k(   35) = (   0.7500000  -0.2500000  -0.7500000), wk =   0.1875000
        k(   36) = (   0.5000000   0.0000000  -1.0000000), wk =   0.0000000
        k(   37) = (  -0.5000000   0.5000000   0.0000000), wk =   0.0937500
        k(   38) = (  -0.7500000   0.7500000  -0.2500000), wk =   0.0000000
        k(   39) = (  -0.5000000   0.0000000   0.5000000), wk =   0.1875000
        k(   40) = (  -0.7500000   0.2500000   0.2500000), wk =   0.0000000

     Dense  grid:     4279 G-vectors     FFT dimensions: (  24,  24,  24)

     Estimated max dynamical RAM per process >       1.68Mb

     The potential is recalculated from file :
     ./tmp/_ph0/silicon.save/charge-density.dat

     Starting wfc are    8 atomic wfcs

     Band Structure Calculation
     Davidson diagonalization with overlap

     ethr =  1.25E-10,  avg # of iterations =  9.8

     total cpu time spent up to now is        0.6 secs

     End of band structure calculation

          k = 0.0000 0.0000 0.0000 (   531 PWs)   bands (ev):

    -5.8298   6.2602   6.2602   6.2602

          k =-0.2500 0.2500-0.2500 (   531 PWs)   bands (ev):

    -5.0163   2.2803   5.4898   5.4898

          k =-0.2500 0.2500-0.2500 (   531 PWs)   bands (ev):

    -5.0163   2.2803   5.4898   5.4898

          k =-0.5000 0.5000-0.5000 (   544 PWs)   bands (ev):

    -3.4435  -0.8222   5.0488   5.0488

          k = 0.5000-0.5000 0.5000 (   544 PWs)   bands (ev):

    -3.4435  -0.8222   5.0488   5.0488

          k = 0.2500-0.2500 0.2500 (   531 PWs)   bands (ev):

    -5.0163   2.2803   5.4898   5.4898

          k = 0.0000 0.5000 0.0000 (   528 PWs)   bands (ev):

    -4.7302   2.7329   4.3342   4.3342

          k =-0.2500 0.7500-0.2500 (   529 PWs)   bands (ev):

    -3.0601  -0.1827   2.6418   4.0173

          k = 0.7500-0.2500 0.7500 (   529 PWs)   bands (ev):

    -3.0601  -0.1827   2.6418   4.0173

          k = 0.5000 0.0000 0.5000 (   524 PWs)   bands (ev):

    -3.7482   0.7368   2.4091   4.9135

          k = 0.5000 0.0000 0.5000 (   524 PWs)   bands (ev):

    -3.7482   0.7368   2.4091   4.9135

          k = 0.2500 0.2500 0.2500 (   531 PWs)   bands (ev):

    -5.0163   2.2803   5.4898   5.4898

          k = 0.0000-1.0000 0.0000 (   524 PWs)   bands (ev):

    -1.6182  -1.6182   3.3581   3.3581

          k =-0.2500-0.7500-0.2500 (   529 PWs)   bands (ev):

    -3.0601  -0.1827   2.6418   4.0173

          k =-0.5000-1.0000 0.0000 (   516 PWs)   bands (ev):

    -1.4420  -1.4420   2.3021   2.3021

          k =-0.7500-0.7500-0.2500 (   529 PWs)   bands (ev):

    -3.0601  -0.1827   2.6418   4.0173

          k = 0.2500-0.2500-0.2500 (   531 PWs)   bands (ev):

    -5.0163   2.2803   5.4898   5.4898

          k = 0.0000 0.0000-0.5000 (   528 PWs)   bands (ev):

    -4.7302   2.7329   4.3342   4.3342

          k = 0.2500-0.2500 0.2500 (   531 PWs)   bands (ev):

    -5.0163   2.2803   5.4898   5.4898

          k = 0.0000 0.0000 0.0000 (   531 PWs)   bands (ev):

    -5.8298   6.2602   6.2602   6.2602

          k =-0.2500-0.2500-0.2500 (   531 PWs)   bands (ev):

    -5.0163   2.2803   5.4898   5.4898

          k =-0.5000 0.0000-0.5000 (   524 PWs)   bands (ev):

    -3.7482   0.7368   2.4091   4.9135

          k =-0.5000 0.5000 0.5000 (   544 PWs)   bands (ev):

    -3.4435  -0.8222   5.0488   5.0488

          k =-0.7500 0.7500 0.2500 (   529 PWs)   bands (ev):

    -3.0601  -0.1827   2.6418   4.0173

          k = 0.0000 0.0000 0.5000 (   528 PWs)   bands (ev):

    -4.7302   2.7329   4.3342   4.3342

          k =-0.2500 0.2500 0.2500 (   531 PWs)   bands (ev):

    -5.0163   2.2803   5.4898   5.4898

          k =-0.7500 0.7500 0.2500 (   529 PWs)   bands (ev):

    -3.0601  -0.1827   2.6418   4.0173

          k =-1.0000 1.0000 0.0000 (   524 PWs)   bands (ev):

    -1.6182  -1.6182   3.3581   3.3581

          k =-0.7500 0.7500-0.2500 (   529 PWs)   bands (ev):

    -3.0601  -0.1827   2.6418   4.0173

          k =-1.0000 1.0000-0.5000 (   528 PWs)   bands (ev):

    -4.7302   2.7329   4.3342   4.3342

          k =-0.7500 0.2500 0.7500 (   529 PWs)   bands (ev):

    -3.0601  -0.1827   2.6418   4.0173

          k =-1.0000 0.5000 0.5000 (   524 PWs)   bands (ev):

    -3.7482   0.7368   2.4091   4.9135

          k = 0.7500 0.2500 0.7500 (   529 PWs)   bands (ev):

    -3.0601  -0.1827   2.6418   4.0173

          k = 0.5000 0.5000 0.5000 (   544 PWs)   bands (ev):

    -3.4435  -0.8222   5.0488   5.0488

          k = 0.7500-0.2500-0.7500 (   529 PWs)   bands (ev):

    -3.0601  -0.1827   2.6418   4.0173

          k = 0.5000 0.0000-1.0000 (   516 PWs)   bands (ev):

    -1.4420  -1.4420   2.3021   2.3021

          k =-0.5000 0.5000 0.0000 (   524 PWs)   bands (ev):

    -3.7482   0.7368   2.4091   4.9135

          k =-0.7500 0.7500-0.2500 (   529 PWs)   bands (ev):

    -3.0601  -0.1827   2.6418   4.0173

          k =-0.5000 0.0000 0.5000 (   524 PWs)   bands (ev):

    -3.7482   0.7368   2.4091   4.9135

          k =-0.7500 0.2500 0.2500 (   529 PWs)   bands (ev):

    -3.0601  -0.1827   2.6418   4.0173

     highest occupied level (ev):     6.2602

     Writing output data file silicon.save

                                                                                

     bravais-lattice index     =            2
     lattice parameter (alat)  =      10.2000  a.u.
     unit-cell volume          =     265.3020 (a.u.)^3
     number of atoms/cell      =            2
     number of atomic types    =            1
     kinetic-energy cut-off    =      24.0000  Ry
     charge density cut-off    =      96.0000  Ry
     convergence threshold     =      1.0E-16
     beta                      =       0.7000
     number of iterations used =            4
     Exchange-correlation      = LDA ( 1  1  0  0 0 0)


     celldm(1)=   10.20000  celldm(2)=    0.00000  celldm(3)=    0.00000
     celldm(4)=    0.00000  celldm(5)=    0.00000  celldm(6)=    0.00000

     crystal axes: (cart. coord. in units of alat)
               a(1) = ( -0.5000  0.0000  0.5000 )  
               a(2) = (  0.0000  0.5000  0.5000 )  
               a(3) = ( -0.5000  0.5000  0.0000 )  

     reciprocal axes: (cart. coord. in units 2 pi/alat)
               b(1) = ( -1.0000 -1.0000  1.0000 )  
               b(2) = (  1.0000  1.0000  1.0000 )  
               b(3) = ( -1.0000  1.0000 -1.0000 )  


     Atoms inside the unit cell: 

     Cartesian axes

     site n.  atom      mass           positions (alat units)
        1     Si  28.0860   tau(    1) = (    0.00000    0.00000    0.00000  )
        2     Si  28.0860   tau(    2) = (    0.25000    0.25000    0.25000  )

     Computing dynamical matrix for 
                    q = (  -0.2500000   0.2500000  -0.2500000 )
 
      6 Sym.Ops. (no q -> -q+G )


     G cutoff =  252.9949  (   4279 G-vectors)     FFT grid: ( 24, 24, 24)
     number of k points=    40

     PseudoPot. # 1 for Si read from file:
     ./UPF/Si.pz-rrkj.UPF
     MD5 check sum: 884b380b739b48e9cd334294cddc9a8d
     Pseudo is Norm-conserving, Zval =  4.0
     Generated using "atomic" code by A. Dal Corso (espresso distribution)
     Using radial grid of 1141 points,  2 beta functions with: 
                l(1) =   0
                l(2) =   1

     Mode symmetry, C_3v (3m)   point group:


     Atomic displacements:
     There are   4 irreducible representations

     Representation     1      1 modes -A_1  L_1  To be done

     Representation     2      1 modes -A_1  L_1  To be done

     Representation     3      2 modes -E    L_3  To be done

     Representation     4      2 modes -E    L_3  To be done



     Alpha used in Ewald sum =   1.0000
     PHONON       :     7.83s CPU         8.32s WALL



     Representation #  1 mode #   1

     Self-consistent Calculation

      iter #   1 total cpu time :     8.5 secs   av.it.:   6.0
      thresh= 1.000E-02 alpha_mix =  0.700 |ddv_scf|^2 =  1.456E-03

      iter #   2 total cpu time :     8.8 secs   av.it.:   7.8
      thresh= 3.815E-03 alpha_mix =  0.700 |ddv_scf|^2 =  2.086E-02

      iter #   3 total cpu time :     9.0 secs   av.it.:   6.5
      thresh= 1.000E-02 alpha_mix =  0.700 |ddv_scf|^2 =  1.048E-06

      iter #   4 total cpu time :     9.3 secs   av.it.:   8.0
      thresh= 1.024E-04 alpha_mix =  0.700 |ddv_scf|^2 =  9.003E-08

      iter #   5 total cpu time :     9.5 secs   av.it.:   7.7
      thresh= 3.000E-05 alpha_mix =  0.700 |ddv_scf|^2 =  3.888E-10

      iter #   6 total cpu time :     9.8 secs   av.it.:   7.9
      thresh= 1.972E-06 alpha_mix =  0.700 |ddv_scf|^2 =  3.846E-11

      iter #   7 total cpu time :    10.0 secs   av.it.:   7.7
      thresh= 6.202E-07 alpha_mix =  0.700 |ddv_scf|^2 =  1.741E-10

      iter #   8 total cpu time :    10.3 secs   av.it.:   6.6
      thresh= 1.320E-06 alpha_mix =  0.700 |ddv_scf|^2 =  3.402E-13

      iter #   9 total cpu time :    10.5 secs   av.it.:   7.1
      thresh= 5.833E-08 alpha_mix =  0.700 |ddv_scf|^2 =  5.660E-15

      iter #  10 total cpu time :    10.8 secs   av.it.:   8.1
      thresh= 7.523E-09 alpha_mix =  0.700 |ddv_scf|^2 =  5.727E-15

      iter #  11 total cpu time :    11.0 secs   av.it.:   7.3
      thresh= 7.568E-09 alpha_mix =  0.700 |ddv_scf|^2 =  8.625E-17

     End of self-consistent calculation

     Convergence has been achieved 


     Representation #  2 mode #   2

     Self-consistent Calculation

      iter #   1 total cpu time :    11.3 secs   av.it.:   6.0
      thresh= 1.000E-02 alpha_mix =  0.700 |ddv_scf|^2 =  1.456E-03

      iter #   2 total cpu time :    11.6 secs   av.it.:   7.8
      thresh= 3.815E-03 alpha_mix =  0.700 |ddv_scf|^2 =  2.086E-02

      iter #   3 total cpu time :    11.8 secs   av.it.:   6.5
      thresh= 1.000E-02 alpha_mix =  0.700 |ddv_scf|^2 =  1.049E-06

      iter #   4 total cpu time :    12.1 secs   av.it.:   8.0
      thresh= 1.024E-04 alpha_mix =  0.700 |ddv_scf|^2 =  9.074E-08

      iter #   5 total cpu time :    12.3 secs   av.it.:   7.7
      thresh= 3.012E-05 alpha_mix =  0.700 |ddv_scf|^2 =  5.858E-10

      iter #   6 total cpu time :    12.6 secs   av.it.:   7.8
      thresh= 2.420E-06 alpha_mix =  0.700 |ddv_scf|^2 =  8.825E-10

      iter #   7 total cpu time :    12.8 secs   av.it.:   6.6
      thresh= 2.971E-06 alpha_mix =  0.700 |ddv_scf|^2 =  2.846E-11

      iter #   8 total cpu time :    13.1 secs   av.it.:   7.7
      thresh= 5.335E-07 alpha_mix =  0.700 |ddv_scf|^2 =  2.986E-13

      iter #   9 total cpu time :    13.3 secs   av.it.:   7.3
      thresh= 5.464E-08 alpha_mix =  0.700 |ddv_scf|^2 =  5.868E-15

      iter #  10 total cpu time :    13.6 secs   av.it.:   8.0
      thresh= 7.660E-09 alpha_mix =  0.700 |ddv_scf|^2 =  6.371E-15

      iter #  11 total cpu time :    13.8 secs   av.it.:   7.3
      thresh= 7.982E-09 alpha_mix =  0.700 |ddv_scf|^2 =  7.146E-17

     End of self-consistent calculation

     Convergence has been achieved 


     Representation #  3 modes #   3  4

     Self-consistent Calculation

      iter #   1 total cpu time :    14.2 secs   av.it.:   5.2
      thresh= 1.000E-02 alpha_mix =  0.700 |ddv_scf|^2 =  3.064E-07

      iter #   2 total cpu time :    14.8 secs   av.it.:   9.3
      thresh= 5.536E-05 alpha_mix =  0.700 |ddv_scf|^2 =  1.827E-08

      iter #   3 total cpu time :    15.4 secs   av.it.:   9.2
      thresh= 1.352E-05 alpha_mix =  0.700 |ddv_scf|^2 =  1.003E-10

      iter #   4 total cpu time :    16.0 secs   av.it.:   9.1
      thresh= 1.001E-06 alpha_mix =  0.700 |ddv_scf|^2 =  6.089E-12

      iter #   5 total cpu time :    16.5 secs   av.it.:   9.0
      thresh= 2.468E-07 alpha_mix =  0.700 |ddv_scf|^2 =  1.099E-14

      iter #   6 total cpu time :    17.1 secs   av.it.:   9.4
      thresh= 1.048E-08 alpha_mix =  0.700 |ddv_scf|^2 =  1.825E-16

      iter #   7 total cpu time :    17.7 secs   av.it.:   9.5
      thresh= 1.351E-09 alpha_mix =  0.700 |ddv_scf|^2 =  1.031E-18

     End of self-consistent calculation

     Convergence has been achieved 


     Representation #  4 modes #   5  6

     Self-consistent Calculation

      iter #   1 total cpu time :    18.1 secs   av.it.:   5.3
      thresh= 1.000E-02 alpha_mix =  0.700 |ddv_scf|^2 =  3.065E-07

      iter #   2 total cpu time :    18.7 secs   av.it.:   9.6
      thresh= 5.537E-05 alpha_mix =  0.700 |ddv_scf|^2 =  1.831E-08

      iter #   3 total cpu time :    19.3 secs   av.it.:   9.3
      thresh= 1.353E-05 alpha_mix =  0.700 |ddv_scf|^2 =  1.002E-10

      iter #   4 total cpu time :    19.9 secs   av.it.:   9.2
      thresh= 1.001E-06 alpha_mix =  0.700 |ddv_scf|^2 =  6.090E-12

      iter #   5 total cpu time :    20.5 secs   av.it.:   9.2
      thresh= 2.468E-07 alpha_mix =  0.700 |ddv_scf|^2 =  1.102E-14

      iter #   6 total cpu time :    21.1 secs   av.it.:   9.6
      thresh= 1.050E-08 alpha_mix =  0.700 |ddv_scf|^2 =  1.812E-16

      iter #   7 total cpu time :    21.7 secs   av.it.:   9.8
      thresh= 1.346E-09 alpha_mix =  0.700 |ddv_scf|^2 =  1.062E-18

     End of self-consistent calculation

     Convergence has been achieved 
 
     Number of q in the star =    8
     List of q in the star:
          1  -0.250000000   0.250000000  -0.250000000
          2   0.250000000  -0.250000000  -0.250000000
          3   0.250000000  -0.250000000   0.250000000
          4   0.250000000   0.250000000   0.250000000
          5  -0.250000000  -0.250000000  -0.250000000
          6  -0.250000000  -0.250000000   0.250000000
          7  -0.250000000   0.250000000   0.250000000
          8   0.250000000   0.250000000  -0.250000000

     Diagonalizing the dynamical matrix

     q = (   -0.250000000   0.250000000  -0.250000000 ) 

 **************************************************************************
     freq (    1) =       2.780947 [THz] =      92.762422 [cm-1]
     freq (    2) =       2.780947 [THz] =      92.762422 [cm-1]
     freq (    3) =       6.848897 [THz] =     228.454628 [cm-1]
     freq (    4) =      14.655981 [THz] =     488.870901 [cm-1]
     freq (    5) =      14.865620 [THz] =     495.863720 [cm-1]
     freq (    6) =      14.865620 [THz] =     495.863720 [cm-1]
 **************************************************************************

     Mode symmetry, C_3v (3m)   point group:

     freq (  1 -  2) =         92.8  [cm-1]   --> E    L_3           
     freq (  3 -  3) =        228.5  [cm-1]   --> A_1  L_1           
     freq (  4 -  4) =        488.9  [cm-1]   --> A_1  L_1           
     freq (  5 -  6) =        495.9  [cm-1]   --> E    L_3           
 
     Number of q in the star =    8
     List of q in the star:
          1  -0.250000000   0.250000000  -0.250000000
          2   0.250000000  -0.250000000  -0.250000000
          3   0.250000000  -0.250000000   0.250000000
          4   0.250000000   0.250000000   0.250000000
          5  -0.250000000  -0.250000000  -0.250000000
          6  -0.250000000  -0.250000000   0.250000000
          7  -0.250000000   0.250000000   0.250000000
          8   0.250000000   0.250000000  -0.250000000
       Writing drho for q = ( -0.250000  0.250000 -0.250000) on file "drho.0_0_1o4"
       Writing drho for q = (  0.250000 -0.250000 -0.250000) on file "drho.-1o4_-1o4_-1o4"
       Writing drho for q = (  0.250000 -0.250000  0.250000) on file "drho.0_0_-1o4"
       Writing drho for q = (  0.250000  0.250000  0.250000) on file "drho.0_1o4_0"
       Writing drho for q = ( -0.250000 -0.250000 -0.250000) on file "drho.0_-1o4_0"
       Writing drho for q = ( -0.250000 -0.250000  0.250000) on file "drho.1o4_0_0"
       Writing drho for q = ( -0.250000  0.250000  0.250000) on file "drho.1o4_1o4_1o4"
       Writing drho for q = (  0.250000  0.250000 -0.250000) on file "drho.-1o4_0_0"

     Calculation of q =    0.5000000  -0.5000000   0.5000000
 
     G-vector sticks info
     --------------------
     sticks:   dense  smooth     PW     G-vecs:    dense   smooth      PW
     Sum         349     349    127                 4279     4279     965
 


     bravais-lattice index     =            2
     lattice parameter (alat)  =      10.2000  a.u.
     unit-cell volume          =     265.3020 (a.u.)^3
     number of atoms/cell      =            2
     number of atomic types    =            1
     number of electrons       =         8.00
     number of Kohn-Sham states=            4
     kinetic-energy cutoff     =      24.0000  Ry
     charge density cutoff     =      96.0000  Ry
     Exchange-correlation      = LDA ( 1  1  0  0 0 0)

     celldm(1)=  10.200000  celldm(2)=   0.000000  celldm(3)=   0.000000
     celldm(4)=   0.000000  celldm(5)=   0.000000  celldm(6)=   0.000000

     crystal axes: (cart. coord. in units of alat)
               a(1) = (  -0.500000   0.000000   0.500000 )  
               a(2) = (   0.000000   0.500000   0.500000 )  
               a(3) = (  -0.500000   0.500000   0.000000 )  

     reciprocal axes: (cart. coord. in units 2 pi/alat)
               b(1) = ( -1.000000 -1.000000  1.000000 )  
               b(2) = (  1.000000  1.000000  1.000000 )  
               b(3) = ( -1.000000  1.000000 -1.000000 )  


     PseudoPot. # 1 for Si read from file:
     ./UPF/Si.pz-rrkj.UPF
     MD5 check sum: 884b380b739b48e9cd334294cddc9a8d
     Pseudo is Norm-conserving, Zval =  4.0
     Generated using "atomic" code by A. Dal Corso (espresso distribution)
     Using radial grid of 1141 points,  2 beta functions with: 
                l(1) =   0
                l(2) =   1

     atomic species   valence    mass     pseudopotential
        Si             4.00    28.08600     Si( 1.00)

     48 Sym. Ops., with inversion, found



   Cartesian axes

     site n.     atom                  positions (alat units)
         1           Si  tau(   1) = (   0.0000000   0.0000000   0.0000000  )
         2           Si  tau(   2) = (   0.2500000   0.2500000   0.2500000  )

     number of k points=    26
                       cart. coord. in units 2pi/alat
        k(    1) = (   0.0000000   0.0000000   0.0000000), wk =   0.0312500
        k(    2) = (   0.5000000  -0.5000000   0.5000000), wk =   0.0000000
        k(    3) = (  -0.2500000   0.2500000  -0.2500000), wk =   0.0625000
        k(    4) = (   0.2500000  -0.2500000   0.2500000), wk =   0.0000000
        k(    5) = (   0.5000000  -0.5000000   0.5000000), wk =   0.0312500
        k(    6) = (   1.0000000  -1.0000000   1.0000000), wk =   0.0000000
        k(    7) = (   0.0000000   0.5000000   0.0000000), wk =   0.1875000
        k(    8) = (   0.5000000   0.0000000   0.5000000), wk =   0.0000000
        k(    9) = (   0.7500000  -0.2500000   0.7500000), wk =   0.1875000
        k(   10) = (   1.2500000  -0.7500000   1.2500000), wk =   0.0000000
        k(   11) = (   0.5000000   0.0000000   0.5000000), wk =   0.1875000
        k(   12) = (   1.0000000  -0.5000000   1.0000000), wk =   0.0000000
        k(   13) = (   0.0000000  -1.0000000   0.0000000), wk =   0.0937500
        k(   14) = (   0.5000000  -1.5000000   0.5000000), wk =   0.0000000
        k(   15) = (  -0.5000000  -1.0000000   0.0000000), wk =   0.1875000
        k(   16) = (   0.0000000  -1.5000000   0.5000000), wk =   0.0000000
        k(   17) = (  -0.2500000  -0.2500000  -0.2500000), wk =   0.1875000
        k(   18) = (   0.2500000  -0.7500000   0.2500000), wk =   0.0000000
        k(   19) = (   0.5000000   0.5000000   0.5000000), wk =   0.0937500
        k(   20) = (   1.0000000   0.0000000   1.0000000), wk =   0.0000000
        k(   21) = (   0.7500000   0.2500000   0.7500000), wk =   0.1875000
        k(   22) = (   1.2500000  -0.2500000   1.2500000), wk =   0.0000000
        k(   23) = (  -0.7500000   0.2500000   0.7500000), wk =   0.3750000
        k(   24) = (  -0.2500000  -0.2500000   1.2500000), wk =   0.0000000
        k(   25) = (  -0.5000000   0.0000000   0.5000000), wk =   0.1875000
        k(   26) = (   0.0000000  -0.5000000   1.0000000), wk =   0.0000000

     Dense  grid:     4279 G-vectors     FFT dimensions: (  24,  24,  24)

     Estimated max dynamical RAM per process >       1.68Mb

     The potential is recalculated from file :
     ./tmp/_ph0/silicon.save/charge-density.dat

     Starting wfc are    8 atomic wfcs

     Band Structure Calculation
     Davidson diagonalization with overlap

     ethr =  1.25E-10,  avg # of iterations =  9.5

     total cpu time spent up to now is        1.1 secs

     End of band structure calculation

          k = 0.0000 0.0000 0.0000 (   531 PWs)   bands (ev):

    -5.8298   6.2602   6.2602   6.2602

          k = 0.5000-0.5000 0.5000 (   544 PWs)   bands (ev):

    -3.4435  -0.8222   5.0488   5.0488

          k =-0.2500 0.2500-0.2500 (   531 PWs)   bands (ev):

    -5.0163   2.2803   5.4898   5.4898

          k = 0.2500-0.2500 0.2500 (   531 PWs)   bands (ev):

    -5.0163   2.2803   5.4898   5.4898

          k = 0.5000-0.5000 0.5000 (   544 PWs)   bands (ev):

    -3.4435  -0.8222   5.0488   5.0488

          k = 1.0000-1.0000 1.0000 (   531 PWs)   bands (ev):

    -5.8298   6.2602   6.2602   6.2602

          k = 0.0000 0.5000 0.0000 (   528 PWs)   bands (ev):

    -4.7302   2.7329   4.3342   4.3342

          k = 0.5000 0.0000 0.5000 (   524 PWs)   bands (ev):

    -3.7482   0.7368   2.4091   4.9135

          k = 0.7500-0.2500 0.7500 (   529 PWs)   bands (ev):

    -3.0601  -0.1827   2.6418   4.0173

          k = 1.2500-0.7500 1.2500 (   531 PWs)   bands (ev):

    -5.0163   2.2803   5.4898   5.4898

          k = 0.5000 0.0000 0.5000 (   524 PWs)   bands (ev):

    -3.7482   0.7368   2.4091   4.9135

          k = 1.0000-0.5000 1.0000 (   528 PWs)   bands (ev):

    -4.7302   2.7329   4.3342   4.3342

          k = 0.0000-1.0000 0.0000 (   524 PWs)   bands (ev):

    -1.6182  -1.6182   3.3581   3.3581

          k = 0.5000-1.5000 0.5000 (   544 PWs)   bands (ev):

    -3.4435  -0.8222   5.0488   5.0488

          k =-0.5000-1.0000 0.0000 (   516 PWs)   bands (ev):

    -1.4420  -1.4420   2.3021   2.3021

          k = 0.0000-1.5000 0.5000 (   524 PWs)   bands (ev):

    -3.7482   0.7368   2.4091   4.9135

          k =-0.2500-0.2500-0.2500 (   531 PWs)   bands (ev):

    -5.0163   2.2803   5.4898   5.4898

          k = 0.2500-0.7500 0.2500 (   529 PWs)   bands (ev):

    -3.0601  -0.1827   2.6418   4.0173

          k = 0.5000 0.5000 0.5000 (   544 PWs)   bands (ev):

    -3.4435  -0.8222   5.0488   5.0488

          k = 1.0000 0.0000 1.0000 (   524 PWs)   bands (ev):

    -1.6182  -1.6182   3.3581   3.3581

          k = 0.7500 0.2500 0.7500 (   529 PWs)   bands (ev):

    -3.0601  -0.1827   2.6418   4.0173

          k = 1.2500-0.2500 1.2500 (   529 PWs)   bands (ev):

    -3.0601  -0.1827   2.6418   4.0173

          k =-0.7500 0.2500 0.7500 (   529 PWs)   bands (ev):

    -3.0601  -0.1827   2.6418   4.0173

          k =-0.2500-0.2500 1.2500 (   529 PWs)   bands (ev):

    -3.0601  -0.1827   2.6418   4.0173

          k =-0.5000 0.0000 0.5000 (   524 PWs)   bands (ev):

    -3.7482   0.7368   2.4091   4.9135

          k = 0.0000-0.5000 1.0000 (   516 PWs)   bands (ev):

    -1.4420  -1.4420   2.3021   2.3021

     highest occupied level (ev):     6.2602

     Writing output data file silicon.save

                                                                                

     bravais-lattice index     =            2
     lattice parameter (alat)  =      10.2000  a.u.
     unit-cell volume          =     265.3020 (a.u.)^3
     number of atoms/cell      =            2
     number of atomic types    =            1
     kinetic-energy cut-off    =      24.0000  Ry
     charge density cut-off    =      96.0000  Ry
     convergence threshold     =      1.0E-16
     beta                      =       0.7000
     number of iterations used =            4
     Exchange-correlation      = LDA ( 1  1  0  0 0 0)


     celldm(1)=   10.20000  celldm(2)=    0.00000  celldm(3)=    0.00000
     celldm(4)=    0.00000  celldm(5)=    0.00000  celldm(6)=    0.00000

     crystal axes: (cart. coord. in units of alat)
               a(1) = ( -0.5000  0.0000  0.5000 )  
               a(2) = (  0.0000  0.5000  0.5000 )  
               a(3) = ( -0.5000  0.5000  0.0000 )  

     reciprocal axes: (cart. coord. in units 2 pi/alat)
               b(1) = ( -1.0000 -1.0000  1.0000 )  
               b(2) = (  1.0000  1.0000  1.0000 )  
               b(3) = ( -1.0000  1.0000 -1.0000 )  


     Atoms inside the unit cell: 

     Cartesian axes

     site n.  atom      mass           positions (alat units)
        1     Si  28.0860   tau(    1) = (    0.00000    0.00000    0.00000  )
        2     Si  28.0860   tau(    2) = (    0.25000    0.25000    0.25000  )

     Computing dynamical matrix for 
                    q = (   0.5000000  -0.5000000   0.5000000 )
 
     13 Sym.Ops. (with q -> -q+G )


     G cutoff =  252.9949  (   4279 G-vectors)     FFT grid: ( 24, 24, 24)
     number of k points=    26

     PseudoPot. # 1 for Si read from file:
     ./UPF/Si.pz-rrkj.UPF
     MD5 check sum: 884b380b739b48e9cd334294cddc9a8d
     Pseudo is Norm-conserving, Zval =  4.0
     Generated using "atomic" code by A. Dal Corso (espresso distribution)
     Using radial grid of 1141 points,  2 beta functions with: 
                l(1) =   0
                l(2) =   1


     Atomic displacements:
     There are   4 irreducible representations

     Representation     1      1 modes -  To be done

     Representation     2      1 modes -  To be done

     Representation     3      2 modes -  To be done

     Representation     4      2 modes -  To be done



     Alpha used in Ewald sum =   1.0000
     PHONON       :    21.02s CPU        22.27s WALL



     Representation #  1 mode #   1

     Self-consistent Calculation

      iter #   1 total cpu time :    22.4 secs   av.it.:   4.8
      thresh= 1.000E-02 alpha_mix =  0.700 |ddv_scf|^2 =  1.329E-05

      iter #   2 total cpu time :    22.6 secs   av.it.:   7.6
      thresh= 3.645E-04 alpha_mix =  0.700 |ddv_scf|^2 =  1.057E-05

      iter #   3 total cpu time :    22.7 secs   av.it.:   7.0
      thresh= 3.251E-04 alpha_mix =  0.700 |ddv_scf|^2 =  1.529E-09

      iter #   4 total cpu time :    22.9 secs   av.it.:   7.2
      thresh= 3.910E-06 alpha_mix =  0.700 |ddv_scf|^2 =  2.349E-11

      iter #   5 total cpu time :    23.1 secs   av.it.:   7.1
      thresh= 4.847E-07 alpha_mix =  0.700 |ddv_scf|^2 =  1.477E-13

      iter #   6 total cpu time :    23.2 secs   av.it.:   7.3
      thresh= 3.844E-08 alpha_mix =  0.700 |ddv_scf|^2 =  2.212E-15

      iter #   7 total cpu time :    23.4 secs   av.it.:   7.4
      thresh= 4.703E-09 alpha_mix =  0.700 |ddv_scf|^2 =  6.509E-18

     End of self-consistent calculation

     Convergence has been achieved 


     Representation #  2 mode #   2

     Self-consistent Calculation

      iter #   1 total cpu time :    23.5 secs   av.it.:   5.8
      thresh= 1.000E-02 alpha_mix =  0.700 |ddv_scf|^2 =  2.408E-04

      iter #   2 total cpu time :    23.7 secs   av.it.:   7.9
      thresh= 1.552E-03 alpha_mix =  0.700 |ddv_scf|^2 =  8.229E-04

      iter #   3 total cpu time :    23.9 secs   av.it.:   7.1
      thresh= 2.869E-03 alpha_mix =  0.700 |ddv_scf|^2 =  2.004E-08

      iter #   4 total cpu time :    24.0 secs   av.it.:   8.3
      thresh= 1.416E-05 alpha_mix =  0.700 |ddv_scf|^2 =  6.388E-10

      iter #   5 total cpu time :    24.2 secs   av.it.:   8.2
      thresh= 2.527E-06 alpha_mix =  0.700 |ddv_scf|^2 =  5.099E-11

      iter #   6 total cpu time :    24.4 secs   av.it.:   7.5
      thresh= 7.141E-07 alpha_mix =  0.700 |ddv_scf|^2 =  3.348E-14

      iter #   7 total cpu time :    24.6 secs   av.it.:   7.5
      thresh= 1.830E-08 alpha_mix =  0.700 |ddv_scf|^2 =  2.909E-15

      iter #   8 total cpu time :    24.8 secs   av.it.:   7.7
      thresh= 5.394E-09 alpha_mix =  0.700 |ddv_scf|^2 =  1.094E-16

      iter #   9 total cpu time :    24.9 secs   av.it.:   7.6
      thresh= 1.046E-09 alpha_mix =  0.700 |ddv_scf|^2 =  1.687E-19

     End of self-consistent calculation

     Convergence has been achieved 


     Representation #  3 modes #   3  4

     Self-consistent Calculation

      iter #   1 total cpu time :    25.2 secs   av.it.:   4.9
      thresh= 1.000E-02 alpha_mix =  0.700 |ddv_scf|^2 =  6.956E-07

      iter #   2 total cpu time :    25.6 secs   av.it.:   8.8
      thresh= 8.340E-05 alpha_mix =  0.700 |ddv_scf|^2 =  6.383E-08

      iter #   3 total cpu time :    25.9 secs   av.it.:   8.7
      thresh= 2.526E-05 alpha_mix =  0.700 |ddv_scf|^2 =  9.067E-11

      iter #   4 total cpu time :    26.3 secs   av.it.:   8.2
      thresh= 9.522E-07 alpha_mix =  0.700 |ddv_scf|^2 =  2.749E-13

      iter #   5 total cpu time :    26.7 secs   av.it.:   8.7
      thresh= 5.243E-08 alpha_mix =  0.700 |ddv_scf|^2 =  1.046E-15

      iter #   6 total cpu time :    27.0 secs   av.it.:   8.8
      thresh= 3.234E-09 alpha_mix =  0.700 |ddv_scf|^2 =  2.169E-17

     End of self-consistent calculation

     Convergence has been achieved 


     Representation #  4 modes #   5  6

     Self-consistent Calculation

      iter #   1 total cpu time :    27.3 secs   av.it.:   4.7
      thresh= 1.000E-02 alpha_mix =  0.700 |ddv_scf|^2 =  8.156E-08

      iter #   2 total cpu time :    27.7 secs   av.it.:   9.1
      thresh= 2.856E-05 alpha_mix =  0.700 |ddv_scf|^2 =  1.914E-09

      iter #   3 total cpu time :    28.1 secs   av.it.:   8.8
      thresh= 4.375E-06 alpha_mix =  0.700 |ddv_scf|^2 =  6.411E-11

      iter #   4 total cpu time :    28.4 secs   av.it.:   8.7
      thresh= 8.007E-07 alpha_mix =  0.700 |ddv_scf|^2 =  9.093E-14

      iter #   5 total cpu time :    28.8 secs   av.it.:   9.0
      thresh= 3.015E-08 alpha_mix =  0.700 |ddv_scf|^2 =  1.180E-15

      iter #   6 total cpu time :    29.2 secs   av.it.:   9.3
      thresh= 3.436E-09 alpha_mix =  0.700 |ddv_scf|^2 =  4.777E-18

     End of self-consistent calculation

     Convergence has been achieved 
 
     Number of q in the star =    4
     List of q in the star:
          1   0.500000000  -0.500000000   0.500000000
          2   0.500000000   0.500000000   0.500000000
          3  -0.500000000   0.500000000   0.500000000
          4   0.500000000   0.500000000  -0.500000000

     Diagonalizing the dynamical matrix

     q = (    0.500000000  -0.500000000   0.500000000 ) 

 **************************************************************************
     freq (    1) =       3.063531 [THz] =     102.188388 [cm-1]
     freq (    2) =       3.063531 [THz] =     102.188388 [cm-1]
     freq (    3) =      11.441568 [THz] =     381.649637 [cm-1]
     freq (    4) =      12.004147 [THz] =     400.415243 [cm-1]
     freq (    5) =      14.540204 [THz] =     485.009015 [cm-1]
     freq (    6) =      14.540204 [THz] =     485.009015 [cm-1]
 **************************************************************************
 
     Number of q in the star =    4
     List of q in the star:
          1   0.500000000  -0.500000000   0.500000000
          2   0.500000000   0.500000000   0.500000000
          3  -0.500000000   0.500000000   0.500000000
          4   0.500000000   0.500000000  -0.500000000
       Writing drho for q = (  0.500000 -0.500000  0.500000) on file "drho.0_0_-1o2"
       Writing drho for q = (  0.500000  0.500000  0.500000) on file "drho.0_1o2_0"
       Writing drho for q = ( -0.500000  0.500000  0.500000) on file "drho.1o2_1o2_1o2"
       Writing drho for q = (  0.500000  0.500000 -0.500000) on file "drho.-1o2_0_0"

     Calculation of q =    0.0000000   0.5000000   0.0000000
 
     G-vector sticks info
     --------------------
     sticks:   dense  smooth     PW     G-vecs:    dense   smooth      PW
     Sum         349     349    121                 4279     4279     893
 


     bravais-lattice index     =            2
     lattice parameter (alat)  =      10.2000  a.u.
     unit-cell volume          =     265.3020 (a.u.)^3
     number of atoms/cell      =            2
     number of atomic types    =            1
     number of electrons       =         8.00
     number of Kohn-Sham states=            4
     kinetic-energy cutoff     =      24.0000  Ry
     charge density cutoff     =      96.0000  Ry
     Exchange-correlation      = LDA ( 1  1  0  0 0 0)

     celldm(1)=  10.200000  celldm(2)=   0.000000  celldm(3)=   0.000000
     celldm(4)=   0.000000  celldm(5)=   0.000000  celldm(6)=   0.000000

     crystal axes: (cart. coord. in units of alat)
               a(1) = (  -0.500000   0.000000   0.500000 )  
               a(2) = (   0.000000   0.500000   0.500000 )  
               a(3) = (  -0.500000   0.500000   0.000000 )  

     reciprocal axes: (cart. coord. in units 2 pi/alat)
               b(1) = ( -1.000000 -1.000000  1.000000 )  
               b(2) = (  1.000000  1.000000  1.000000 )  
               b(3) = ( -1.000000  1.000000 -1.000000 )  


     PseudoPot. # 1 for Si read from file:
     ./UPF/Si.pz-rrkj.UPF
     MD5 check sum: 884b380b739b48e9cd334294cddc9a8d
     Pseudo is Norm-conserving, Zval =  4.0
     Generated using "atomic" code by A. Dal Corso (espresso distribution)
     Using radial grid of 1141 points,  2 beta functions with: 
                l(1) =   0
                l(2) =   1

     atomic species   valence    mass     pseudopotential
        Si             4.00    28.08600     Si( 1.00)

     48 Sym. Ops., with inversion, found



   Cartesian axes

     site n.     atom                  positions (alat units)
         1           Si  tau(   1) = (   0.0000000   0.0000000   0.0000000  )
         2           Si  tau(   2) = (   0.2500000   0.2500000   0.2500000  )

     number of k points=    36
                       cart. coord. in units 2pi/alat
        k(    1) = (   0.0000000   0.0000000   0.0000000), wk =   0.0312500
        k(    2) = (   0.0000000   0.5000000   0.0000000), wk =   0.0000000
        k(    3) = (  -0.2500000   0.2500000  -0.2500000), wk =   0.1250000
        k(    4) = (  -0.2500000   0.7500000  -0.2500000), wk =   0.0000000
        k(    5) = (   0.5000000  -0.5000000   0.5000000), wk =   0.1250000
        k(    6) = (   0.5000000   0.0000000   0.5000000), wk =   0.0000000
        k(    7) = (   0.0000000   0.5000000   0.0000000), wk =   0.0312500
        k(    8) = (   0.0000000   1.0000000   0.0000000), wk =   0.0000000
        k(    9) = (   0.7500000  -0.2500000   0.7500000), wk =   0.1250000
        k(   10) = (   0.7500000   0.2500000   0.7500000), wk =   0.0000000
        k(   11) = (   0.5000000   0.0000000   0.5000000), wk =   0.1250000
        k(   12) = (   0.5000000   0.5000000   0.5000000), wk =   0.0000000
        k(   13) = (   0.0000000  -1.0000000   0.0000000), wk =   0.0312500
        k(   14) = (   0.0000000  -0.5000000   0.0000000), wk =   0.0000000
        k(   15) = (  -0.5000000  -1.0000000   0.0000000), wk =   0.1250000
        k(   16) = (  -0.5000000  -0.5000000   0.0000000), wk =   0.0000000
        k(   17) = (   0.2500000  -0.2500000   0.2500000), wk =   0.1250000
        k(   18) = (   0.2500000   0.2500000   0.2500000), wk =   0.0000000
        k(   19) = (   0.0000000  -0.5000000   0.0000000), wk =   0.0312500
        k(   20) = (   0.0000000   0.0000000   0.0000000), wk =   0.0000000
        k(   21) = (   0.5000000   0.0000000   0.0000000), wk =   0.1250000
        k(   22) = (   0.5000000   0.5000000   0.0000000), wk =   0.0000000
        k(   23) = (  -0.7500000   0.2500000  -0.7500000), wk =   0.1250000
        k(   24) = (  -0.7500000   0.7500000  -0.7500000), wk =   0.0000000
        k(   25) = (  -0.2500000   0.7500000  -0.7500000), wk =   0.2500000
        k(   26) = (  -0.2500000   1.2500000  -0.7500000), wk =   0.0000000
        k(   27) = (  -0.2500000  -0.7500000  -0.7500000), wk =   0.2500000
        k(   28) = (  -0.2500000  -0.2500000  -0.7500000), wk =   0.0000000
        k(   29) = (   0.0000000   0.5000000  -0.5000000), wk =   0.1250000
        k(   30) = (   0.0000000   1.0000000  -0.5000000), wk =   0.0000000
        k(   31) = (   0.0000000  -0.5000000  -0.5000000), wk =   0.1250000
        k(   32) = (   0.0000000   0.0000000  -0.5000000), wk =   0.0000000
        k(   33) = (  -1.0000000   0.0000000   0.0000000), wk =   0.0625000
        k(   34) = (  -1.0000000   0.5000000   0.0000000), wk =   0.0000000
        k(   35) = (  -1.0000000  -0.5000000   0.0000000), wk =   0.0625000
        k(   36) = (  -1.0000000   0.0000000   0.0000000), wk =   0.0000000

     Dense  grid:     4279 G-vectors     FFT dimensions: (  24,  24,  24)

     Estimated max dynamical RAM per process >       1.68Mb

     The potential is recalculated from file :
     ./tmp/_ph0/silicon.save/charge-density.dat

     Starting wfc are    8 atomic wfcs

     Band Structure Calculation
     Davidson diagonalization with overlap

     ethr =  1.25E-10,  avg # of iterations =  9.7

     total cpu time spent up to now is        1.8 secs

     End of band structure calculation

          k = 0.0000 0.0000 0.0000 (   531 PWs)   bands (ev):

    -5.8298   6.2602   6.2602   6.2602

          k = 0.0000 0.5000 0.0000 (   528 PWs)   bands (ev):

    -4.7302   2.7329   4.3342   4.3342

          k =-0.2500 0.2500-0.2500 (   531 PWs)   bands (ev):

    -5.0163   2.2803   5.4898   5.4898

          k =-0.2500 0.7500-0.2500 (   529 PWs)   bands (ev):

    -3.0601  -0.1827   2.6418   4.0173

          k = 0.5000-0.5000 0.5000 (   544 PWs)   bands (ev):

    -3.4435  -0.8222   5.0488   5.0488

          k = 0.5000 0.0000 0.5000 (   524 PWs)   bands (ev):

    -3.7482   0.7368   2.4091   4.9135

          k = 0.0000 0.5000 0.0000 (   528 PWs)   bands (ev):

    -4.7302   2.7329   4.3342   4.3342

          k = 0.0000 1.0000 0.0000 (   524 PWs)   bands (ev):

    -1.6182  -1.6182   3.3581   3.3581

          k = 0.7500-0.2500 0.7500 (   529 PWs)   bands (ev):

    -3.0601  -0.1827   2.6418   4.0173

          k = 0.7500 0.2500 0.7500 (   529 PWs)   bands (ev):

    -3.0601  -0.1827   2.6418   4.0173

          k = 0.5000 0.0000 0.5000 (   524 PWs)   bands (ev):

    -3.7482   0.7368   2.4091   4.9135

          k = 0.5000 0.5000 0.5000 (   544 PWs)   bands (ev):

    -3.4435  -0.8222   5.0488   5.0488

          k = 0.0000-1.0000 0.0000 (   524 PWs)   bands (ev):

    -1.6182  -1.6182   3.3581   3.3581

          k = 0.0000-0.5000 0.0000 (   528 PWs)   bands (ev):

    -4.7302   2.7329   4.3342   4.3342

          k =-0.5000-1.0000 0.0000 (   516 PWs)   bands (ev):

    -1.4420  -1.4420   2.3021   2.3021

          k =-0.5000-0.5000 0.0000 (   524 PWs)   bands (ev):

    -3.7482   0.7368   2.4091   4.9135

          k = 0.2500-0.2500 0.2500 (   531 PWs)   bands (ev):

    -5.0163   2.2803   5.4898   5.4898

          k = 0.2500 0.2500 0.2500 (   531 PWs)   bands (ev):

    -5.0163   2.2803   5.4898   5.4898

          k = 0.0000-0.5000 0.0000 (   528 PWs)   bands (ev):

    -4.7302   2.7329   4.3342   4.3342

          k = 0.0000 0.0000 0.0000 (   531 PWs)   bands (ev):

    -5.8298   6.2602   6.2602   6.2602

          k = 0.5000 0.0000 0.0000 (   528 PWs)   bands (ev):

    -4.7302   2.7329   4.3342   4.3342

          k = 0.5000 0.5000 0.0000 (   524 PWs)   bands (ev):

    -3.7482   0.7368   2.4091   4.9135

          k =-0.7500 0.2500-0.7500 (   529 PWs)   bands (ev):

    -3.0601  -0.1827   2.6418   4.0173

          k =-0.7500 0.7500-0.7500 (   531 PWs)   bands (ev):

    -5.0163   2.2803   5.4898   5.4898

          k =-0.2500 0.7500-0.7500 (   529 PWs)   bands (ev):

    -3.0601  -0.1827   2.6418   4.0173

          k =-0.2500 1.2500-0.7500 (   529 PWs)   bands (ev):

    -3.0601  -0.1827   2.6418   4.0173

          k =-0.2500-0.7500-0.7500 (   529 PWs)   bands (ev):

    -3.0601  -0.1827   2.6418   4.0173

          k =-0.2500-0.2500-0.7500 (   529 PWs)   bands (ev):

    -3.0601  -0.1827   2.6418   4.0173

          k = 0.0000 0.5000-0.5000 (   524 PWs)   bands (ev):

    -3.7482   0.7368   2.4091   4.9135

          k = 0.0000 1.0000-0.5000 (   516 PWs)   bands (ev):

    -1.4420  -1.4420   2.3021   2.3021

          k = 0.0000-0.5000-0.5000 (   524 PWs)   bands (ev):

    -3.7482   0.7368   2.4091   4.9135

          k = 0.0000 0.0000-0.5000 (   528 PWs)   bands (ev):

    -4.7302   2.7329   4.3342   4.3342

          k =-1.0000 0.0000 0.0000 (   524 PWs)   bands (ev):

    -1.6182  -1.6182   3.3581   3.3581

          k =-1.0000 0.5000 0.0000 (   516 PWs)   bands (ev):

    -1.4420  -1.4420   2.3021   2.3021

          k =-1.0000-0.5000 0.0000 (   516 PWs)   bands (ev):

    -1.4420  -1.4420   2.3021   2.3021

          k =-1.0000 0.0000 0.0000 (   524 PWs)   bands (ev):

    -1.6182  -1.6182   3.3581   3.3581

     highest occupied level (ev):     6.2602

     Writing output data file silicon.save

                                                                                

     bravais-lattice index     =            2
     lattice parameter (alat)  =      10.2000  a.u.
     unit-cell volume          =     265.3020 (a.u.)^3
     number of atoms/cell      =            2
     number of atomic types    =            1
     kinetic-energy cut-off    =      24.0000  Ry
     charge density cut-off    =      96.0000  Ry
     convergence threshold     =      1.0E-16
     beta                      =       0.7000
     number of iterations used =            4
     Exchange-correlation      = LDA ( 1  1  0  0 0 0)


     celldm(1)=   10.20000  celldm(2)=    0.00000  celldm(3)=    0.00000
     celldm(4)=    0.00000  celldm(5)=    0.00000  celldm(6)=    0.00000

     crystal axes: (cart. coord. in units of alat)
               a(1) = ( -0.5000  0.0000  0.5000 )  
               a(2) = (  0.0000  0.5000  0.5000 )  
               a(3) = ( -0.5000  0.5000  0.0000 )  

     reciprocal axes: (cart. coord. in units 2 pi/alat)
               b(1) = ( -1.0000 -1.0000  1.0000 )  
               b(2) = (  1.0000  1.0000  1.0000 )  
               b(3) = ( -1.0000  1.0000 -1.0000 )  


     Atoms inside the unit cell: 

     Cartesian axes

     site n.  atom      mass           positions (alat units)
        1     Si  28.0860   tau(    1) = (    0.00000    0.00000    0.00000  )
        2     Si  28.0860   tau(    2) = (    0.25000    0.25000    0.25000  )

     Computing dynamical matrix for 
                    q = (   0.0000000   0.5000000   0.0000000 )
 
      8 Sym.Ops. (no q -> -q+G )


     G cutoff =  252.9949  (   4279 G-vectors)     FFT grid: ( 24, 24, 24)
     number of k points=    36

     PseudoPot. # 1 for Si read from file:
     ./UPF/Si.pz-rrkj.UPF
     MD5 check sum: 884b380b739b48e9cd334294cddc9a8d
     Pseudo is Norm-conserving, Zval =  4.0
     Generated using "atomic" code by A. Dal Corso (espresso distribution)
     Using radial grid of 1141 points,  2 beta functions with: 
                l(1) =   0
                l(2) =   1

     Mode symmetry, C_4v (4mm)  point group:


     Atomic displacements:
     There are   4 irreducible representations

     Representation     1      1 modes -A_1  G_1 D_1  To be done

     Representation     2      1 modes -B_2  G_4 D_2'  To be done

     Representation     3      2 modes -E    G_5 D_5  To be done

     Representation     4      2 modes -E    G_5 D_5  To be done



     Alpha used in Ewald sum =   1.0000
     PHONON       :    28.26s CPU        29.90s WALL



     Representation #  1 mode #   1

     Self-consistent Calculation

      iter #   1 total cpu time :    30.1 secs   av.it.:   5.7
      thresh= 1.000E-02 alpha_mix =  0.700 |ddv_scf|^2 =  1.709E-03

      iter #   2 total cpu time :    30.3 secs   av.it.:   7.4
      thresh= 4.133E-03 alpha_mix =  0.700 |ddv_scf|^2 =  2.066E-02

      iter #   3 total cpu time :    30.5 secs   av.it.:   6.4
      thresh= 1.000E-02 alpha_mix =  0.700 |ddv_scf|^2 =  1.856E-08

      iter #   4 total cpu time :    30.8 secs   av.it.:   8.3
      thresh= 1.362E-05 alpha_mix =  0.700 |ddv_scf|^2 =  1.245E-09

      iter #   5 total cpu time :    31.0 secs   av.it.:   8.0
      thresh= 3.529E-06 alpha_mix =  0.700 |ddv_scf|^2 =  2.595E-11

      iter #   6 total cpu time :    31.2 secs   av.it.:   7.2
      thresh= 5.094E-07 alpha_mix =  0.700 |ddv_scf|^2 =  6.730E-13

      iter #   7 total cpu time :    31.4 secs   av.it.:   6.4
      thresh= 8.204E-08 alpha_mix =  0.700 |ddv_scf|^2 =  4.321E-15

      iter #   8 total cpu time :    31.6 secs   av.it.:   7.1
      thresh= 6.573E-09 alpha_mix =  0.700 |ddv_scf|^2 =  5.591E-18

     End of self-consistent calculation

     Convergence has been achieved 


     Representation #  2 mode #   2

     Self-consistent Calculation

      iter #   1 total cpu time :    31.8 secs   av.it.:   5.2
      thresh= 1.000E-02 alpha_mix =  0.700 |ddv_scf|^2 =  3.225E-06

      iter #   2 total cpu time :    32.1 secs   av.it.:   8.3
      thresh= 1.796E-04 alpha_mix =  0.700 |ddv_scf|^2 =  7.133E-07

      iter #   3 total cpu time :    32.3 secs   av.it.:   8.1
      thresh= 8.446E-05 alpha_mix =  0.700 |ddv_scf|^2 =  3.298E-09

      iter #   4 total cpu time :    32.6 secs   av.it.:   8.2
      thresh= 5.743E-06 alpha_mix =  0.700 |ddv_scf|^2 =  8.522E-11

      iter #   5 total cpu time :    33.0 secs   av.it.:   7.7
      thresh= 9.232E-07 alpha_mix =  0.700 |ddv_scf|^2 =  1.365E-12

      iter #   6 total cpu time :    33.2 secs   av.it.:   7.6
      thresh= 1.168E-07 alpha_mix =  0.700 |ddv_scf|^2 =  7.284E-16

      iter #   7 total cpu time :    33.4 secs   av.it.:   8.4
      thresh= 2.699E-09 alpha_mix =  0.700 |ddv_scf|^2 =  2.192E-17

     End of self-consistent calculation

     Convergence has been achieved 


     Representation #  3 modes #   3  4

     Self-consistent Calculation

      iter #   1 total cpu time :    33.8 secs   av.it.:   5.5
      thresh= 1.000E-02 alpha_mix =  0.700 |ddv_scf|^2 =  7.648E-07

      iter #   2 total cpu time :    34.3 secs   av.it.:   9.2
      thresh= 8.745E-05 alpha_mix =  0.700 |ddv_scf|^2 =  1.300E-07

      iter #   3 total cpu time :    34.9 secs   av.it.:   8.8
      thresh= 3.606E-05 alpha_mix =  0.700 |ddv_scf|^2 =  1.222E-10

      iter #   4 total cpu time :    35.4 secs   av.it.:   8.7
      thresh= 1.106E-06 alpha_mix =  0.700 |ddv_scf|^2 =  5.972E-12

      iter #   5 total cpu time :    35.8 secs   av.it.:   8.6
      thresh= 2.444E-07 alpha_mix =  0.700 |ddv_scf|^2 =  5.920E-15

      iter #   6 total cpu time :    36.4 secs   av.it.:   9.6
      thresh= 7.694E-09 alpha_mix =  0.700 |ddv_scf|^2 =  2.090E-17

     End of self-consistent calculation

     Convergence has been achieved 


     Representation #  4 modes #   5  6

     Self-consistent Calculation

      iter #   1 total cpu time :    36.7 secs   av.it.:   5.4
      thresh= 1.000E-02 alpha_mix =  0.700 |ddv_scf|^2 =  5.047E-07

      iter #   2 total cpu time :    37.3 secs   av.it.:   9.2
      thresh= 7.104E-05 alpha_mix =  0.700 |ddv_scf|^2 =  8.354E-08

      iter #   3 total cpu time :    37.8 secs   av.it.:   8.8
      thresh= 2.890E-05 alpha_mix =  0.700 |ddv_scf|^2 =  1.295E-10

      iter #   4 total cpu time :    38.3 secs   av.it.:   8.7
      thresh= 1.138E-06 alpha_mix =  0.700 |ddv_scf|^2 =  6.720E-12

      iter #   5 total cpu time :    38.8 secs   av.it.:   8.5
      thresh= 2.592E-07 alpha_mix =  0.700 |ddv_scf|^2 =  6.858E-15

      iter #   6 total cpu time :    39.3 secs   av.it.:   9.5
      thresh= 8.281E-09 alpha_mix =  0.700 |ddv_scf|^2 =  2.567E-17

     End of self-consistent calculation

     Convergence has been achieved 
 
     Number of q in the star =    6
     List of q in the star:
          1   0.000000000   0.500000000   0.000000000
          2   0.000000000  -0.500000000   0.000000000
          3   0.500000000   0.000000000   0.000000000
          4   0.000000000   0.000000000   0.500000000
          5   0.000000000   0.000000000  -0.500000000
          6  -0.500000000   0.000000000   0.000000000

     Diagonalizing the dynamical matrix

     q = (    0.000000000   0.500000000   0.000000000 ) 

 **************************************************************************
     freq (    1) =       3.774149 [THz] =     125.892059 [cm-1]
     freq (    2) =       3.774149 [THz] =     125.892059 [cm-1]
     freq (    3) =       7.166834 [THz] =     239.059835 [cm-1]
     freq (    4) =      14.177462 [THz] =     472.909236 [cm-1]
     freq (    5) =      14.177462 [THz] =     472.909236 [cm-1]
     freq (    6) =      14.884768 [THz] =     496.502406 [cm-1]
 **************************************************************************

     Mode symmetry, C_4v (4mm)  point group:

     freq (  1 -  2) =        125.9  [cm-1]   --> E    G_5 D_5       
     freq (  3 -  3) =        239.1  [cm-1]   --> A_1  G_1 D_1       
     freq (  4 -  5) =        472.9  [cm-1]   --> E    G_5 D_5       
     freq (  6 -  6) =        496.5  [cm-1]   --> B_2  G_4 D_2'      
 
     Number of q in the star =    6
     List of q in the star:
          1   0.000000000   0.500000000   0.000000000
          2   0.000000000  -0.500000000   0.000000000
          3   0.500000000   0.000000000   0.000000000
          4   0.000000000   0.000000000   0.500000000
          5   0.000000000   0.000000000  -0.500000000
          6  -0.500000000   0.000000000   0.000000000
       Writing drho for q = (  0.000000  0.500000  0.000000) on file "drho.0_1o4_1o4"
       Writing drho for q = (  0.000000 -0.500000  0.000000) on file "drho.0_-1o4_-1o4"
       Writing drho for q = (  0.500000  0.000000  0.000000) on file "drho.-1o4_0_-1o4"
       Writing drho for q = (  0.000000  0.000000  0.500000) on file "drho.1o4_1o4_0"
       Writing drho for q = (  0.000000  0.000000 -0.500000) on file "drho.-1o4_-1o4_0"
       Writing drho for q = ( -0.500000  0.000000  0.000000) on file "drho.1o4_0_1o4"

     Calculation of q =    0.7500000  -0.2500000   0.7500000
 
     G-vector sticks info
     --------------------
     sticks:   dense  smooth     PW     G-vecs:    dense   smooth      PW
     Sum         349     349    139                 4279     4279    1067
 


     bravais-lattice index     =            2
     lattice parameter (alat)  =      10.2000  a.u.
     unit-cell volume          =     265.3020 (a.u.)^3
     number of atoms/cell      =            2
     number of atomic types    =            1
     number of electrons       =         8.00
     number of Kohn-Sham states=            4
     kinetic-energy cutoff     =      24.0000  Ry
     charge density cutoff     =      96.0000  Ry
     Exchange-correlation      = LDA ( 1  1  0  0 0 0)

     celldm(1)=  10.200000  celldm(2)=   0.000000  celldm(3)=   0.000000
     celldm(4)=   0.000000  celldm(5)=   0.000000  celldm(6)=   0.000000

     crystal axes: (cart. coord. in units of alat)
               a(1) = (  -0.500000   0.000000   0.500000 )  
               a(2) = (   0.000000   0.500000   0.500000 )  
               a(3) = (  -0.500000   0.500000   0.000000 )  

     reciprocal axes: (cart. coord. in units 2 pi/alat)
               b(1) = ( -1.000000 -1.000000  1.000000 )  
               b(2) = (  1.000000  1.000000  1.000000 )  
               b(3) = ( -1.000000  1.000000 -1.000000 )  


     PseudoPot. # 1 for Si read from file:
     ./UPF/Si.pz-rrkj.UPF
     MD5 check sum: 884b380b739b48e9cd334294cddc9a8d
     Pseudo is Norm-conserving, Zval =  4.0
     Generated using "atomic" code by A. Dal Corso (espresso distribution)
     Using radial grid of 1141 points,  2 beta functions with: 
                l(1) =   0
                l(2) =   1

     atomic species   valence    mass     pseudopotential
        Si             4.00    28.08600     Si( 1.00)

     48 Sym. Ops., with inversion, found



   Cartesian axes

     site n.     atom                  positions (alat units)
         1           Si  tau(   1) = (   0.0000000   0.0000000   0.0000000  )
         2           Si  tau(   2) = (   0.2500000   0.2500000   0.2500000  )

     number of k points=    80
                       cart. coord. in units 2pi/alat
        k(    1) = (   0.0000000   0.0000000   0.0000000), wk =   0.0312500
        k(    2) = (   0.7500000  -0.2500000   0.7500000), wk =   0.0000000
        k(    3) = (  -0.2500000   0.2500000  -0.2500000), wk =   0.0312500
        k(    4) = (   0.5000000   0.0000000   0.5000000), wk =   0.0000000
        k(    5) = (   0.5000000  -0.5000000   0.5000000), wk =   0.0312500
        k(    6) = (   1.2500000  -0.7500000   1.2500000), wk =   0.0000000
        k(    7) = (   0.0000000   0.5000000   0.0000000), wk =   0.0312500
        k(    8) = (   0.7500000   0.2500000   0.7500000), wk =   0.0000000
        k(    9) = (   0.7500000  -0.2500000   0.7500000), wk =   0.0312500
        k(   10) = (   1.5000000  -0.5000000   1.5000000), wk =   0.0000000
        k(   11) = (   0.5000000   0.0000000   0.5000000), wk =   0.0312500
        k(   12) = (   1.2500000  -0.2500000   1.2500000), wk =   0.0000000
        k(   13) = (   0.0000000  -1.0000000   0.0000000), wk =   0.0312500
        k(   14) = (   0.7500000  -1.2500000   0.7500000), wk =   0.0000000
        k(   15) = (  -0.5000000  -1.0000000   0.0000000), wk =   0.0625000
        k(   16) = (   0.2500000  -1.2500000   0.7500000), wk =   0.0000000
        k(   17) = (  -0.2500000   0.2500000   0.2500000), wk =   0.0625000
        k(   18) = (   0.5000000   0.0000000   1.0000000), wk =   0.0000000
        k(   19) = (   0.2500000   0.2500000   0.2500000), wk =   0.0312500
        k(   20) = (   1.0000000   0.0000000   1.0000000), wk =   0.0000000
        k(   21) = (   0.2500000  -0.2500000   0.2500000), wk =   0.0312500
        k(   22) = (   1.0000000  -0.5000000   1.0000000), wk =   0.0000000
        k(   23) = (  -0.2500000  -0.2500000  -0.2500000), wk =   0.0312500
        k(   24) = (   0.5000000  -0.5000000   0.5000000), wk =   0.0000000
        k(   25) = (   0.2500000  -0.2500000  -0.2500000), wk =   0.0625000
        k(   26) = (   1.0000000  -0.5000000   0.5000000), wk =   0.0000000
        k(   27) = (   0.5000000  -0.5000000  -0.5000000), wk =   0.0625000
        k(   28) = (   1.2500000  -0.7500000   0.2500000), wk =   0.0000000
        k(   29) = (  -0.5000000  -0.5000000  -0.5000000), wk =   0.0312500
        k(   30) = (   0.2500000  -0.7500000   0.2500000), wk =   0.0000000
        k(   31) = (   0.0000000  -0.5000000   0.0000000), wk =   0.0312500
        k(   32) = (   0.7500000  -0.7500000   0.7500000), wk =   0.0000000
        k(   33) = (   0.5000000   0.0000000   0.0000000), wk =   0.0625000
        k(   34) = (   1.2500000  -0.2500000   0.7500000), wk =   0.0000000
        k(   35) = (   0.0000000   0.0000000  -0.5000000), wk =   0.0625000
        k(   36) = (   0.7500000  -0.2500000   0.2500000), wk =   0.0000000
        k(   37) = (   0.7500000  -0.2500000  -0.7500000), wk =   0.0625000
        k(   38) = (   1.5000000  -0.5000000   0.0000000), wk =   0.0000000
        k(   39) = (  -0.7500000  -0.2500000  -0.7500000), wk =   0.0312500
        k(   40) = (   0.0000000  -0.5000000   0.0000000), wk =   0.0000000
        k(   41) = (  -0.7500000   0.2500000  -0.7500000), wk =   0.0312500
        k(   42) = (   0.0000000   0.0000000   0.0000000), wk =   0.0000000
        k(   43) = (  -0.2500000   0.7500000  -0.7500000), wk =   0.0625000
        k(   44) = (   0.5000000   0.5000000   0.0000000), wk =   0.0000000
        k(   45) = (   0.7500000   0.2500000   0.7500000), wk =   0.0312500
        k(   46) = (   1.5000000   0.0000000   1.5000000), wk =   0.0000000
        k(   47) = (  -0.7500000   0.2500000   0.7500000), wk =   0.0625000
        k(   48) = (   0.0000000   0.0000000   1.5000000), wk =   0.0000000
        k(   49) = (  -0.7500000   0.7500000   0.2500000), wk =   0.0625000
        k(   50) = (   0.0000000   0.5000000   1.0000000), wk =   0.0000000
        k(   51) = (  -0.2500000   0.7500000   0.7500000), wk =   0.0625000
        k(   52) = (   0.5000000   0.5000000   1.5000000), wk =   0.0000000
        k(   53) = (  -0.2500000  -0.7500000  -0.7500000), wk =   0.0625000
        k(   54) = (   0.5000000  -1.0000000   0.0000000), wk =   0.0000000
        k(   55) = (   0.7500000  -0.7500000   0.2500000), wk =   0.0625000
        k(   56) = (   1.5000000  -1.0000000   1.0000000), wk =   0.0000000
        k(   57) = (  -0.7500000  -0.7500000   0.2500000), wk =   0.0625000
        k(   58) = (   0.0000000  -1.0000000   1.0000000), wk =   0.0000000
        k(   59) = (   0.2500000   0.7500000   0.7500000), wk =   0.0625000
        k(   60) = (   1.0000000   0.5000000   1.5000000), wk =   0.0000000
        k(   61) = (  -0.2500000  -0.7500000   0.7500000), wk =   0.0625000
        k(   62) = (   0.5000000  -1.0000000   1.5000000), wk =   0.0000000
        k(   63) = (   0.5000000   0.0000000  -0.5000000), wk =   0.0625000
        k(   64) = (   1.2500000  -0.2500000   0.2500000), wk =   0.0000000
        k(   65) = (  -0.5000000   0.0000000  -0.5000000), wk =   0.0312500
        k(   66) = (   0.2500000  -0.2500000   0.2500000), wk =   0.0000000
        k(   67) = (   0.0000000   0.5000000  -0.5000000), wk =   0.0625000
        k(   68) = (   0.7500000   0.2500000   0.2500000), wk =   0.0000000
        k(   69) = (   0.0000000   0.5000000   0.5000000), wk =   0.0625000
        k(   70) = (   0.7500000   0.2500000   1.2500000), wk =   0.0000000
        k(   71) = (   0.0000000  -0.5000000  -0.5000000), wk =   0.0625000
        k(   72) = (   0.7500000  -0.7500000   0.2500000), wk =   0.0000000
        k(   73) = (   0.5000000  -0.5000000   0.0000000), wk =   0.0625000
        k(   74) = (   1.2500000  -0.7500000   0.7500000), wk =   0.0000000
        k(   75) = (  -1.0000000   0.0000000   0.0000000), wk =   0.0625000
        k(   76) = (  -0.2500000  -0.2500000   0.7500000), wk =   0.0000000
        k(   77) = (   0.5000000  -1.0000000   0.0000000), wk =   0.0625000
        k(   78) = (   1.2500000  -1.2500000   0.7500000), wk =   0.0000000
        k(   79) = (  -1.0000000  -0.5000000   0.0000000), wk =   0.0625000
        k(   80) = (  -0.2500000  -0.7500000   0.7500000), wk =   0.0000000

     Dense  grid:     4279 G-vectors     FFT dimensions: (  24,  24,  24)

     Estimated max dynamical RAM per process >       1.68Mb

     The potential is recalculated from file :
     ./tmp/_ph0/silicon.save/charge-density.dat

     Starting wfc are    8 atomic wfcs

     Band Structure Calculation
     Davidson diagonalization with overlap

     ethr =  1.25E-10,  avg # of iterations =  9.8

     total cpu time spent up to now is        3.1 secs

     End of band structure calculation

          k = 0.0000 0.0000 0.0000 (   531 PWs)   bands (ev):

    -5.8298   6.2602   6.2602   6.2602

          k = 0.7500-0.2500 0.7500 (   529 PWs)   bands (ev):

    -3.0601  -0.1827   2.6418   4.0173

          k =-0.2500 0.2500-0.2500 (   531 PWs)   bands (ev):

    -5.0163   2.2803   5.4898   5.4898

          k = 0.5000 0.0000 0.5000 (   524 PWs)   bands (ev):

    -3.7482   0.7368   2.4091   4.9135

          k = 0.5000-0.5000 0.5000 (   544 PWs)   bands (ev):

    -3.4435  -0.8222   5.0488   5.0488

          k = 1.2500-0.7500 1.2500 (   531 PWs)   bands (ev):

    -5.0163   2.2803   5.4898   5.4898

          k = 0.0000 0.5000 0.0000 (   528 PWs)   bands (ev):

    -4.7302   2.7329   4.3342   4.3342

          k = 0.7500 0.2500 0.7500 (   529 PWs)   bands (ev):

    -3.0601  -0.1827   2.6418   4.0173

          k = 0.7500-0.2500 0.7500 (   529 PWs)   bands (ev):

    -3.0601  -0.1827   2.6418   4.0173

          k = 1.5000-0.5000 1.5000 (   544 PWs)   bands (ev):

    -3.4435  -0.8222   5.0488   5.0488

          k = 0.5000 0.0000 0.5000 (   524 PWs)   bands (ev):

    -3.7482   0.7368   2.4091   4.9135

          k = 1.2500-0.2500 1.2500 (   529 PWs)   bands (ev):

    -3.0601  -0.1827   2.6418   4.0173

          k = 0.0000-1.0000 0.0000 (   524 PWs)   bands (ev):

    -1.6182  -1.6182   3.3581   3.3581

          k = 0.7500-1.2500 0.7500 (   531 PWs)   bands (ev):

    -5.0163   2.2803   5.4898   5.4898

          k =-0.5000-1.0000 0.0000 (   516 PWs)   bands (ev):

    -1.4420  -1.4420   2.3021   2.3021

          k = 0.2500-1.2500 0.7500 (   529 PWs)   bands (ev):

    -3.0601  -0.1827   2.6418   4.0173

          k =-0.2500 0.2500 0.2500 (   531 PWs)   bands (ev):

    -5.0163   2.2803   5.4898   5.4898

          k = 0.5000 0.0000 1.0000 (   516 PWs)   bands (ev):

    -1.4420  -1.4420   2.3021   2.3021

          k = 0.2500 0.2500 0.2500 (   531 PWs)   bands (ev):

    -5.0163   2.2803   5.4898   5.4898

          k = 1.0000 0.0000 1.0000 (   524 PWs)   bands (ev):

    -1.6182  -1.6182   3.3581   3.3581

          k = 0.2500-0.2500 0.2500 (   531 PWs)   bands (ev):

    -5.0163   2.2803   5.4898   5.4898

          k = 1.0000-0.5000 1.0000 (   528 PWs)   bands (ev):

    -4.7302   2.7329   4.3342   4.3342

          k =-0.2500-0.2500-0.2500 (   531 PWs)   bands (ev):

    -5.0163   2.2803   5.4898   5.4898

          k = 0.5000-0.5000 0.5000 (   544 PWs)   bands (ev):

    -3.4435  -0.8222   5.0488   5.0488

          k = 0.2500-0.2500-0.2500 (   531 PWs)   bands (ev):

    -5.0163   2.2803   5.4898   5.4898

          k = 1.0000-0.5000 0.5000 (   524 PWs)   bands (ev):

    -3.7482   0.7368   2.4091   4.9135

          k = 0.5000-0.5000-0.5000 (   544 PWs)   bands (ev):

    -3.4435  -0.8222   5.0488   5.0488

          k = 1.2500-0.7500 0.2500 (   529 PWs)   bands (ev):

    -3.0601  -0.1827   2.6418   4.0173

          k =-0.5000-0.5000-0.5000 (   544 PWs)   bands (ev):

    -3.4435  -0.8222   5.0488   5.0488

          k = 0.2500-0.7500 0.2500 (   529 PWs)   bands (ev):

    -3.0601  -0.1827   2.6418   4.0173

          k = 0.0000-0.5000 0.0000 (   528 PWs)   bands (ev):

    -4.7302   2.7329   4.3342   4.3342

          k = 0.7500-0.7500 0.7500 (   531 PWs)   bands (ev):

    -5.0163   2.2803   5.4898   5.4898

          k = 0.5000 0.0000 0.0000 (   528 PWs)   bands (ev):

    -4.7302   2.7329   4.3342   4.3342

          k = 1.2500-0.2500 0.7500 (   529 PWs)   bands (ev):

    -3.0601  -0.1827   2.6418   4.0173

          k = 0.0000 0.0000-0.5000 (   528 PWs)   bands (ev):

    -4.7302   2.7329   4.3342   4.3342

          k = 0.7500-0.2500 0.2500 (   529 PWs)   bands (ev):

    -3.0601  -0.1827   2.6418   4.0173

          k = 0.7500-0.2500-0.7500 (   529 PWs)   bands (ev):

    -3.0601  -0.1827   2.6418   4.0173

          k = 1.5000-0.5000 0.0000 (   524 PWs)   bands (ev):

    -3.7482   0.7368   2.4091   4.9135

          k =-0.7500-0.2500-0.7500 (   529 PWs)   bands (ev):

    -3.0601  -0.1827   2.6418   4.0173

          k = 0.0000-0.5000 0.0000 (   528 PWs)   bands (ev):

    -4.7302   2.7329   4.3342   4.3342

          k =-0.7500 0.2500-0.7500 (   529 PWs)   bands (ev):

    -3.0601  -0.1827   2.6418   4.0173

          k = 0.0000 0.0000 0.0000 (   531 PWs)   bands (ev):

    -5.8298   6.2602   6.2602   6.2602

          k =-0.2500 0.7500-0.7500 (   529 PWs)   bands (ev):

    -3.0601  -0.1827   2.6418   4.0173

          k = 0.5000 0.5000 0.0000 (   524 PWs)   bands (ev):

    -3.7482   0.7368   2.4091   4.9135

          k = 0.7500 0.2500 0.7500 (   529 PWs)   bands (ev):

    -3.0601  -0.1827   2.6418   4.0173

          k = 1.5000 0.0000 1.5000 (   524 PWs)   bands (ev):

    -3.7482   0.7368   2.4091   4.9135

          k =-0.7500 0.2500 0.7500 (   529 PWs)   bands (ev):

    -3.0601  -0.1827   2.6418   4.0173

          k = 0.0000 0.0000 1.5000 (   528 PWs)   bands (ev):

    -4.7302   2.7329   4.3342   4.3342

          k =-0.7500 0.7500 0.2500 (   529 PWs)   bands (ev):

    -3.0601  -0.1827   2.6418   4.0173

          k = 0.0000 0.5000 1.0000 (   516 PWs)   bands (ev):

    -1.4420  -1.4420   2.3021   2.3021

          k =-0.2500 0.7500 0.7500 (   529 PWs)   bands (ev):

    -3.0601  -0.1827   2.6418   4.0173

          k = 0.5000 0.5000 1.5000 (   544 PWs)   bands (ev):

[...]
               a(1) = (  -0.500000   0.000000   0.500000 )  
               a(2) = (   0.000000   0.500000   0.500000 )  
               a(3) = (  -0.500000   0.500000   0.000000 )  

     reciprocal axes: (cart. coord. in units 2 pi/alat)
               b(1) = ( -1.000000 -1.000000  1.000000 )  
               b(2) = (  1.000000  1.000000  1.000000 )  
               b(3) = ( -1.000000  1.000000 -1.000000 )  


     PseudoPot. # 1 for Si read from file:
     ./UPF/Si.pz-rrkj.UPF
     MD5 check sum: 884b380b739b48e9cd334294cddc9a8d
     Pseudo is Norm-conserving, Zval =  4.0
     Generated using "atomic" code by A. Dal Corso (espresso distribution)
     Using radial grid of 1141 points,  2 beta functions with: 
                l(1) =   0
                l(2) =   1

     atomic species   valence    mass     pseudopotential
        Si             4.00    28.08600     Si( 1.00)

     48 Sym. Ops., with inversion, found



   Cartesian axes

     site n.     atom                  positions (alat units)
         1           Si  tau(   1) = (   0.0000000   0.0000000   0.0000000  )
         2           Si  tau(   2) = (   0.2500000   0.2500000   0.2500000  )

     number of k points=    32
                       cart. coord. in units 2pi/alat
        k(    1) = (   0.0000000   0.0000000   0.0000000), wk =   0.0312500
        k(    2) = (  -0.5000000  -1.0000000   0.0000000), wk =   0.0000000
        k(    3) = (  -0.2500000   0.2500000  -0.2500000), wk =   0.2500000
        k(    4) = (  -0.7500000  -0.7500000  -0.2500000), wk =   0.0000000
        k(    5) = (   0.5000000  -0.5000000   0.5000000), wk =   0.1250000
        k(    6) = (   0.0000000  -1.5000000   0.5000000), wk =   0.0000000
        k(    7) = (   0.0000000   0.5000000   0.0000000), wk =   0.1250000
        k(    8) = (  -0.5000000  -0.5000000   0.0000000), wk =   0.0000000
        k(    9) = (   0.7500000  -0.2500000   0.7500000), wk =   0.2500000
        k(   10) = (   0.2500000  -1.2500000   0.7500000), wk =   0.0000000
        k(   11) = (   0.5000000   0.0000000   0.5000000), wk =   0.1250000
        k(   12) = (   0.0000000  -1.0000000   0.5000000), wk =   0.0000000
        k(   13) = (   0.0000000  -1.0000000   0.0000000), wk =   0.0625000
        k(   14) = (  -0.5000000  -2.0000000   0.0000000), wk =   0.0000000
        k(   15) = (  -0.5000000  -1.0000000   0.0000000), wk =   0.0312500
        k(   16) = (  -1.0000000  -2.0000000   0.0000000), wk =   0.0000000
        k(   17) = (   0.5000000   0.0000000   0.0000000), wk =   0.0625000
        k(   18) = (   0.0000000  -1.0000000   0.0000000), wk =   0.0000000
        k(   19) = (  -0.7500000   0.2500000  -0.7500000), wk =   0.2500000
        k(   20) = (  -1.2500000  -0.7500000  -0.7500000), wk =   0.0000000
        k(   21) = (  -0.2500000   0.7500000   0.7500000), wk =   0.2500000
        k(   22) = (  -0.7500000  -0.2500000   0.7500000), wk =   0.0000000
        k(   23) = (  -0.5000000   0.0000000  -0.5000000), wk =   0.1250000
        k(   24) = (  -1.0000000  -1.0000000  -0.5000000), wk =   0.0000000
        k(   25) = (   0.0000000   0.5000000   0.5000000), wk =   0.1250000
        k(   26) = (  -0.5000000  -0.5000000   0.5000000), wk =   0.0000000
        k(   27) = (  -1.0000000   0.0000000   0.0000000), wk =   0.0312500
        k(   28) = (  -1.5000000  -1.0000000   0.0000000), wk =   0.0000000
        k(   29) = (   0.0000000   1.0000000   0.5000000), wk =   0.1250000
        k(   30) = (  -0.5000000   0.0000000   0.5000000), wk =   0.0000000
        k(   31) = (   0.5000000   1.0000000   0.0000000), wk =   0.0312500
        k(   32) = (   0.0000000   0.0000000   0.0000000), wk =   0.0000000

     Dense  grid:     4279 G-vectors     FFT dimensions: (  24,  24,  24)

     Estimated max dynamical RAM per process >       1.68Mb

     The potential is recalculated from file :
     ./tmp/_ph0/silicon.save/charge-density.dat

     Starting wfc are    8 atomic wfcs

     Band Structure Calculation
     Davidson diagonalization with overlap

     ethr =  1.25E-10,  avg # of iterations =  9.4

     total cpu time spent up to now is        5.2 secs

     End of band structure calculation

          k = 0.0000 0.0000 0.0000 (   531 PWs)   bands (ev):

    -5.8298   6.2602   6.2602   6.2602

          k =-0.5000-1.0000 0.0000 (   516 PWs)   bands (ev):

    -1.4420  -1.4420   2.3021   2.3021

          k =-0.2500 0.2500-0.2500 (   531 PWs)   bands (ev):

    -5.0163   2.2803   5.4898   5.4898

          k =-0.7500-0.7500-0.2500 (   529 PWs)   bands (ev):

    -3.0601  -0.1827   2.6418   4.0173

          k = 0.5000-0.5000 0.5000 (   544 PWs)   bands (ev):

    -3.4435  -0.8222   5.0488   5.0488

          k = 0.0000-1.5000 0.5000 (   524 PWs)   bands (ev):

    -3.7482   0.7368   2.4091   4.9135

          k = 0.0000 0.5000 0.0000 (   528 PWs)   bands (ev):

    -4.7302   2.7329   4.3342   4.3342

          k =-0.5000-0.5000 0.0000 (   524 PWs)   bands (ev):

    -3.7482   0.7368   2.4091   4.9135

          k = 0.7500-0.2500 0.7500 (   529 PWs)   bands (ev):

    -3.0601  -0.1827   2.6418   4.0173

          k = 0.2500-1.2500 0.7500 (   529 PWs)   bands (ev):

    -3.0601  -0.1827   2.6418   4.0173

          k = 0.5000 0.0000 0.5000 (   524 PWs)   bands (ev):

    -3.7482   0.7368   2.4091   4.9135

          k = 0.0000-1.0000 0.5000 (   516 PWs)   bands (ev):

    -1.4420  -1.4420   2.3021   2.3021

          k = 0.0000-1.0000 0.0000 (   524 PWs)   bands (ev):

    -1.6182  -1.6182   3.3581   3.3581

          k =-0.5000-2.0000 0.0000 (   528 PWs)   bands (ev):

    -4.7302   2.7329   4.3342   4.3342

          k =-0.5000-1.0000 0.0000 (   516 PWs)   bands (ev):

    -1.4420  -1.4420   2.3021   2.3021

          k =-1.0000-2.0000 0.0000 (   524 PWs)   bands (ev):

    -1.6182  -1.6182   3.3581   3.3581

          k = 0.5000 0.0000 0.0000 (   528 PWs)   bands (ev):

    -4.7302   2.7329   4.3342   4.3342

          k = 0.0000-1.0000 0.0000 (   524 PWs)   bands (ev):

    -1.6182  -1.6182   3.3581   3.3581

          k =-0.7500 0.2500-0.7500 (   529 PWs)   bands (ev):

    -3.0601  -0.1827   2.6418   4.0173

          k =-1.2500-0.7500-0.7500 (   531 PWs)   bands (ev):

    -5.0163   2.2803   5.4898   5.4898

          k =-0.2500 0.7500 0.7500 (   529 PWs)   bands (ev):

    -3.0601  -0.1827   2.6418   4.0173

          k =-0.7500-0.2500 0.7500 (   529 PWs)   bands (ev):

    -3.0601  -0.1827   2.6418   4.0173

          k =-0.5000 0.0000-0.5000 (   524 PWs)   bands (ev):

    -3.7482   0.7368   2.4091   4.9135

          k =-1.0000-1.0000-0.5000 (   528 PWs)   bands (ev):

    -4.7302   2.7329   4.3342   4.3342

          k = 0.0000 0.5000 0.5000 (   524 PWs)   bands (ev):

    -3.7482   0.7368   2.4091   4.9135

          k =-0.5000-0.5000 0.5000 (   544 PWs)   bands (ev):

    -3.4435  -0.8222   5.0488   5.0488

          k =-1.0000 0.0000 0.0000 (   524 PWs)   bands (ev):

    -1.6182  -1.6182   3.3581   3.3581

          k =-1.5000-1.0000 0.0000 (   516 PWs)   bands (ev):

    -1.4420  -1.4420   2.3021   2.3021

          k = 0.0000 1.0000 0.5000 (   516 PWs)   bands (ev):

    -1.4420  -1.4420   2.3021   2.3021

          k =-0.5000 0.0000 0.5000 (   524 PWs)   bands (ev):

    -3.7482   0.7368   2.4091   4.9135

          k = 0.5000 1.0000 0.0000 (   516 PWs)   bands (ev):

    -1.4420  -1.4420   2.3021   2.3021

          k = 0.0000 0.0000 0.0000 (   531 PWs)   bands (ev):

    -5.8298   6.2602   6.2602   6.2602

     highest occupied level (ev):     6.2602

     Writing output data file silicon.save

                                                                                

     bravais-lattice index     =            2
     lattice parameter (alat)  =      10.2000  a.u.
     unit-cell volume          =     265.3020 (a.u.)^3
     number of atoms/cell      =            2
     number of atomic types    =            1
     kinetic-energy cut-off    =      24.0000  Ry
     charge density cut-off    =      96.0000  Ry
     convergence threshold     =      1.0E-16
     beta                      =       0.7000
     number of iterations used =            4
     Exchange-correlation      = LDA ( 1  1  0  0 0 0)


     celldm(1)=   10.20000  celldm(2)=    0.00000  celldm(3)=    0.00000
     celldm(4)=    0.00000  celldm(5)=    0.00000  celldm(6)=    0.00000

     crystal axes: (cart. coord. in units of alat)
               a(1) = ( -0.5000  0.0000  0.5000 )  
               a(2) = (  0.0000  0.5000  0.5000 )  
               a(3) = ( -0.5000  0.5000  0.0000 )  

     reciprocal axes: (cart. coord. in units 2 pi/alat)
               b(1) = ( -1.0000 -1.0000  1.0000 )  
               b(2) = (  1.0000  1.0000  1.0000 )  
               b(3) = ( -1.0000  1.0000 -1.0000 )  


     Atoms inside the unit cell: 

     Cartesian axes

     site n.  atom      mass           positions (alat units)
        1     Si  28.0860   tau(    1) = (    0.00000    0.00000    0.00000  )
        2     Si  28.0860   tau(    2) = (    0.25000    0.25000    0.25000  )

     Computing dynamical matrix for 
                    q = (  -0.5000000  -1.0000000   0.0000000 )
 
      8 Sym.Ops. (no q -> -q+G )


     G cutoff =  252.9949  (   4279 G-vectors)     FFT grid: ( 24, 24, 24)
     number of k points=    32

     PseudoPot. # 1 for Si read from file:
     ./UPF/Si.pz-rrkj.UPF
     MD5 check sum: 884b380b739b48e9cd334294cddc9a8d
     Pseudo is Norm-conserving, Zval =  4.0
     Generated using "atomic" code by A. Dal Corso (espresso distribution)
     Using radial grid of 1141 points,  2 beta functions with: 
                l(1) =   0
                l(2) =   1


     Atomic displacements:
     There are   3 irreducible representations

     Representation     1      2 modes -  To be done

     Representation     2      2 modes -  To be done

     Representation     3      2 modes -  To be done



     Alpha used in Ewald sum =   1.0000
     PHONON       :  1m33.46s CPU     1m38.30s WALL



     Representation #  1 modes #   1  2

     Self-consistent Calculation

      iter #   1 total cpu time :    98.6 secs   av.it.:   5.7
      thresh= 1.000E-02 alpha_mix =  0.700 |ddv_scf|^2 =  5.995E-06

      iter #   2 total cpu time :    99.1 secs   av.it.:   9.0
      thresh= 2.449E-04 alpha_mix =  0.700 |ddv_scf|^2 =  7.395E-06

      iter #   3 total cpu time :    99.5 secs   av.it.:   8.5
      thresh= 2.719E-04 alpha_mix =  0.700 |ddv_scf|^2 =  8.848E-10

      iter #   4 total cpu time :   100.0 secs   av.it.:   8.7
      thresh= 2.975E-06 alpha_mix =  0.700 |ddv_scf|^2 =  2.569E-11

      iter #   5 total cpu time :   100.4 secs   av.it.:   8.4
      thresh= 5.068E-07 alpha_mix =  0.700 |ddv_scf|^2 =  6.576E-14

      iter #   6 total cpu time :   100.8 secs   av.it.:   8.2
      thresh= 2.564E-08 alpha_mix =  0.700 |ddv_scf|^2 =  1.268E-15

      iter #   7 total cpu time :   101.3 secs   av.it.:   8.8
      thresh= 3.561E-09 alpha_mix =  0.700 |ddv_scf|^2 =  4.385E-17

     End of self-consistent calculation

     Convergence has been achieved 


     Representation #  2 modes #   3  4

     Self-consistent Calculation

      iter #   1 total cpu time :   101.6 secs   av.it.:   5.5
      thresh= 1.000E-02 alpha_mix =  0.700 |ddv_scf|^2 =  3.062E-06

      iter #   2 total cpu time :   102.1 secs   av.it.:   9.2
      thresh= 1.750E-04 alpha_mix =  0.700 |ddv_scf|^2 =  2.136E-06

      iter #   3 total cpu time :   102.6 secs   av.it.:   8.6
      thresh= 1.462E-04 alpha_mix =  0.700 |ddv_scf|^2 =  2.055E-10

      iter #   4 total cpu time :   103.0 secs   av.it.:   8.6
      thresh= 1.433E-06 alpha_mix =  0.700 |ddv_scf|^2 =  1.308E-11

      iter #   5 total cpu time :   103.4 secs   av.it.:   8.5
      thresh= 3.617E-07 alpha_mix =  0.700 |ddv_scf|^2 =  2.032E-14

      iter #   6 total cpu time :   103.9 secs   av.it.:   9.2
      thresh= 1.426E-08 alpha_mix =  0.700 |ddv_scf|^2 =  2.330E-16

      iter #   7 total cpu time :   104.4 secs   av.it.:   9.2
      thresh= 1.526E-09 alpha_mix =  0.700 |ddv_scf|^2 =  1.613E-17

     End of self-consistent calculation

     Convergence has been achieved 


     Representation #  3 modes #   5  6

     Self-consistent Calculation

      iter #   1 total cpu time :   104.7 secs   av.it.:   5.8
      thresh= 1.000E-02 alpha_mix =  0.700 |ddv_scf|^2 =  3.711E-06

      iter #   2 total cpu time :   105.2 secs   av.it.:   9.2
      thresh= 1.926E-04 alpha_mix =  0.700 |ddv_scf|^2 =  2.661E-06

      iter #   3 total cpu time :   105.6 secs   av.it.:   8.6
      thresh= 1.631E-04 alpha_mix =  0.700 |ddv_scf|^2 =  1.805E-10

      iter #   4 total cpu time :   106.1 secs   av.it.:   8.8
      thresh= 1.344E-06 alpha_mix =  0.700 |ddv_scf|^2 =  2.156E-11

      iter #   5 total cpu time :   106.5 secs   av.it.:   8.6
      thresh= 4.644E-07 alpha_mix =  0.700 |ddv_scf|^2 =  1.071E-14

      iter #   6 total cpu time :   107.0 secs   av.it.:   9.2
      thresh= 1.035E-08 alpha_mix =  0.700 |ddv_scf|^2 =  2.265E-16

      iter #   7 total cpu time :   107.5 secs   av.it.:   9.3
      thresh= 1.505E-09 alpha_mix =  0.700 |ddv_scf|^2 =  2.531E-17

     End of self-consistent calculation

     Convergence has been achieved 
 
     Number of q in the star =    6
     List of q in the star:
          1  -0.500000000  -1.000000000   0.000000000
          2   0.000000000   1.000000000   0.500000000
          3   0.000000000  -1.000000000  -0.500000000
          4   0.500000000   1.000000000   0.000000000
          5  -1.000000000  -0.500000000   0.000000000
          6   0.000000000  -0.500000000  -1.000000000

     Diagonalizing the dynamical matrix

     q = (   -0.500000000  -1.000000000   0.000000000 ) 

 **************************************************************************
     freq (    1) =       6.348401 [THz] =     211.759849 [cm-1]
     freq (    2) =       6.348401 [THz] =     211.759849 [cm-1]
     freq (    3) =      10.502349 [THz] =     350.320665 [cm-1]
     freq (    4) =      10.502349 [THz] =     350.320665 [cm-1]
     freq (    5) =      13.648942 [THz] =     455.279715 [cm-1]
     freq (    6) =      13.648942 [THz] =     455.279715 [cm-1]
 **************************************************************************
 
     Number of q in the star =    6
     List of q in the star:
          1  -0.500000000  -1.000000000   0.000000000
          2   0.000000000   1.000000000   0.500000000
          3   0.000000000  -1.000000000  -0.500000000
          4   0.500000000   1.000000000   0.000000000
          5  -1.000000000  -0.500000000   0.000000000
          6   0.000000000  -0.500000000  -1.000000000
       Writing drho for q = ( -0.500000 -1.000000  0.000000) on file "drho.1o4_-1o2_-1o4"
       Writing drho for q = (  0.000000  1.000000  0.500000) on file "drho.1o4_3o4_1o2"
       Writing drho for q = (  0.000000 -1.000000 -0.500000) on file "drho.-1o4_-3o4_-1o2"
       Writing drho for q = (  0.500000  1.000000  0.000000) on file "drho.-1o4_1o2_1o4"
       Writing drho for q = ( -1.000000 -0.500000  0.000000) on file "drho.1o2_-1o4_1o4"
       Writing drho for q = (  0.000000 -0.500000 -1.000000) on file "drho.-1o2_-3o4_-1o4"
 
     init_run     :      0.24s CPU      0.25s WALL (       7 calls)
     electrons    :      4.29s CPU      4.46s WALL (       7 calls)

     Called by init_run:
     wfcinit      :      0.00s CPU      0.00s WALL (       7 calls)
     potinit      :      0.01s CPU      0.02s WALL (       7 calls)

     Called by electrons:
     c_bands      :      4.28s CPU      4.46s WALL (       7 calls)
     v_of_rho     :      0.01s CPU      0.01s WALL (       8 calls)

     Called by c_bands:
     init_us_2    :      0.30s CPU      0.35s WALL (    7391 calls)
     cegterg      :      3.55s CPU      3.71s WALL (     292 calls)

     Called by sum_band:

     Called by *egterg:
     h_psi        :     75.00s CPU     78.60s WALL (   75118 calls)
     g_psi        :      0.04s CPU      0.03s WALL (    2822 calls)
     cdiaghg      :      0.17s CPU      0.14s WALL (    3114 calls)

     Called by h_psi:
     h_psi:pot    :     74.71s CPU     78.22s WALL (   75118 calls)
     h_psi:calbec :      1.27s CPU      1.33s WALL (   75118 calls)
     vloc_psi     :     72.23s CPU     75.45s WALL (   75118 calls)
     add_vuspsi   :      0.84s CPU      1.07s WALL (   75118 calls)

     General routines
     calbec       :      2.06s CPU      2.13s WALL (  152090 calls)
     fft          :      0.20s CPU      0.19s WALL (    1151 calls)
     ffts         :      0.17s CPU      0.17s WALL (    1164 calls)
     fftw         :     81.00s CPU     84.66s WALL (  661242 calls)
     davcio       :      0.43s CPU      0.56s WALL (   38690 calls)
 
     Parallel routines
     fft_scatter  :      5.36s CPU      5.65s WALL (  663557 calls)
 
     PHONON       :  1m42.23s CPU     1m47.49s WALL

     INITIALIZATION: 
     phq_setup    :      0.03s CPU      0.03s WALL (       8 calls)
     phq_init     :      0.28s CPU      0.29s WALL (       8 calls)
 
     phq_init     :      0.28s CPU      0.29s WALL (       8 calls)
     init_vloc    :      0.01s CPU      0.00s WALL (       8 calls)
     init_us_1    :      0.11s CPU      0.11s WALL (       8 calls)
 
     DYNAMICAL MATRIX:
     dynmat0      :      0.05s CPU      0.05s WALL (       8 calls)
     phqscf       :     93.86s CPU     98.59s WALL (       8 calls)
     dynmatrix    :      0.00s CPU      0.01s WALL (       8 calls)
 
     phqscf       :     93.86s CPU     98.59s WALL (       8 calls)
     solve_linter :     93.67s CPU     98.36s WALL (      32 calls)
     drhodv       :      0.14s CPU      0.17s WALL (      32 calls)
 
     dynmat0      :      0.05s CPU      0.05s WALL (       8 calls)
     dynmat_us    :      0.04s CPU      0.04s WALL (       8 calls)
     d2ionq       :      0.01s CPU      0.01s WALL (       8 calls)
 
     dynmat_us    :      0.04s CPU      0.04s WALL (       8 calls)
 
     phqscf       :     93.86s CPU     98.59s WALL (       8 calls)
     solve_linter :     93.67s CPU     98.36s WALL (      32 calls)
 
     solve_linter :     93.67s CPU     98.36s WALL (      32 calls)
     dvqpsi_us    :      1.32s CPU      1.35s WALL (     972 calls)
     ortho        :      0.18s CPU      0.21s WALL (    7598 calls)
     cgsolve      :     75.97s CPU     79.55s WALL (    7598 calls)
     incdrhoscf   :      8.46s CPU      9.03s WALL (    7574 calls)
     vpsifft      :      6.95s CPU      7.36s WALL (    6506 calls)
     dv_of_drho   :      0.22s CPU      0.20s WALL (     373 calls)
     mix_pot      :      0.25s CPU      0.30s WALL (     260 calls)
     psymdvscf    :      1.60s CPU      1.57s WALL (     254 calls)
 
     dvqpsi_us    :      1.32s CPU      1.35s WALL (     972 calls)
     dvqpsi_us_on :      0.04s CPU      0.06s WALL (     972 calls)
 
     cgsolve      :     75.97s CPU     79.55s WALL (    7598 calls)
     ch_psi       :     74.87s CPU     78.41s WALL (   71712 calls)
 
     ch_psi       :     74.87s CPU     78.41s WALL (   71712 calls)
     last         :      2.75s CPU      2.86s WALL (   71712 calls)
 
     add_vuspsi   :      0.84s CPU      1.07s WALL (   75118 calls)
 
     incdrhoscf   :      8.46s CPU      9.03s WALL (    7574 calls)
 
 
      General routines
     calbec       :      2.06s CPU      2.13s WALL (  152090 calls)
     fft          :      0.20s CPU      0.19s WALL (    1151 calls)
     ffts         :      0.17s CPU      0.17s WALL (    1164 calls)
     fftw         :     81.00s CPU     84.66s WALL (  661242 calls)
     davcio       :      0.43s CPU      0.56s WALL (   38690 calls)
     write_rec    :      0.24s CPU      0.37s WALL (     292 calls)
 
 
     PHONON       :  1m42.23s CPU     1m47.49s WALL

 
   This run was terminated on:  16:53: 8  23Sep2016            

=------------------------------------------------------------------------------=
   JOB DONE.
=------------------------------------------------------------------------------=
