
     Program PWSCF v.5.4.0 starts on 21Jul2016 at 12:35:34 

     This program is part of the open-source Quantum ESPRESSO suite
     for quantum simulation of materials; please cite
         "P. Giannozzi et al., J. Phys.:Condens. Matter 21 395502 (2009);
          URL http://www.quantum-espresso.org", 
     in publications or presentations arising from this work. More details at
     http://www.quantum-espresso.org/quote

     Parallel version (MPI), running on     1 processors
     Reading input from pw.in
     Message from routine read_cards :
     DEPRECATED: no units specified in ATOMIC_POSITIONS card
     Message from routine read_cards :
     ATOMIC_POSITIONS: units set to alat

     Current dimensions of program PWSCF are:
     Max number of different atomic species (ntypx) = 10
     Max number of k-points (npk) =  40000
     Max angular momentum in pseudopotentials (lmaxx) =  3

     Subspace diagonalization in iterative solution of the eigenvalue problem:
     a serial algorithm will be used


     G-vector sticks info
     --------------------
     sticks:   dense  smooth     PW     G-vecs:    dense   smooth      PW
     Sum         349     349    109                 4279     4279     749



     bravais-lattice index     =            2
     lattice parameter (alat)  =      10.2000  a.u.
     unit-cell volume          =     265.3020 (a.u.)^3
     number of atoms/cell      =            2
     number of atomic types    =            1
     number of electrons       =         8.00
     number of Kohn-Sham states=            4
     kinetic-energy cutoff     =      24.0000  Ry
     charge density cutoff     =      96.0000  Ry
     convergence threshold     =      1.0E-12
     mixing beta               =       0.7000
     number of iterations used =            8  plain     mixing
     Exchange-correlation      = LDA ( 1  1  0  0 0 0)

     celldm(1)=  10.200000  celldm(2)=   0.000000  celldm(3)=   0.000000
     celldm(4)=   0.000000  celldm(5)=   0.000000  celldm(6)=   0.000000

     crystal axes: (cart. coord. in units of alat)
               a(1) = (  -0.500000   0.000000   0.500000 )  
               a(2) = (   0.000000   0.500000   0.500000 )  
               a(3) = (  -0.500000   0.500000   0.000000 )  

     reciprocal axes: (cart. coord. in units 2 pi/alat)
               b(1) = ( -1.000000 -1.000000  1.000000 )  
               b(2) = (  1.000000  1.000000  1.000000 )  
               b(3) = ( -1.000000  1.000000 -1.000000 )  


     PseudoPot. # 1 for Si read from file:
     ./UPF/Si.pz-rrkj.UPF
     MD5 check sum: 884b380b739b48e9cd334294cddc9a8d
     Pseudo is Norm-conserving, Zval =  4.0
     Generated using "atomic" code by A. Dal Corso (espresso distribution)
     Using radial grid of 1141 points,  2 beta functions with: 
                l(1) =   0
                l(2) =   1

     atomic species   valence    mass     pseudopotential
        Si             4.00    28.08600     Si( 1.00)

     48 Sym. Ops., with inversion, found (24 have fractional translation)



   Cartesian axes

     site n.     atom                  positions (alat units)
         1           Si  tau(   1) = (   0.0000000   0.0000000   0.0000000  )
         2           Si  tau(   2) = (   0.2500000   0.2500000   0.2500000  )

     number of k points=     8
                       cart. coord. in units 2pi/alat
        k(    1) = (   0.0000000   0.0000000   0.0000000), wk =   0.0312500
        k(    2) = (  -0.2500000   0.2500000  -0.2500000), wk =   0.2500000
        k(    3) = (   0.5000000  -0.5000000   0.5000000), wk =   0.1250000
        k(    4) = (   0.0000000   0.5000000   0.0000000), wk =   0.1875000
        k(    5) = (   0.7500000  -0.2500000   0.7500000), wk =   0.7500000
        k(    6) = (   0.5000000   0.0000000   0.5000000), wk =   0.3750000
        k(    7) = (   0.0000000  -1.0000000   0.0000000), wk =   0.0937500
        k(    8) = (  -0.5000000  -1.0000000   0.0000000), wk =   0.1875000

     Dense  grid:     4279 G-vectors     FFT dimensions: (  24,  24,  24)

     Largest allocated arrays     est. size (Mb)     dimensions
        Kohn-Sham Wavefunctions         0.03 Mb     (     544,    4)
        NL pseudopotentials             0.07 Mb     (     544,    8)
        Each V/rho on FFT grid          0.21 Mb     (   13824)
        Each G-vector array             0.03 Mb     (    4279)
        G-vector shells                 0.00 Mb     (      86)
     Largest temporary arrays     est. size (Mb)     dimensions
        Auxiliary wavefunctions         0.13 Mb     (     544,   16)
        Each subspace H/S matrix        0.00 Mb     (      16,   16)
        Each <psi_i|beta_j> matrix      0.00 Mb     (       8,    4)
        Arrays for rho mixing           1.69 Mb     (   13824,    8)

     Initial potential from superposition of free atoms

     starting charge    7.99900, renormalised to    8.00000
     Starting wfc are    8 randomized atomic wfcs

     total cpu time spent up to now is        0.2 secs

     per-process dynamical memory:     5.8 Mb

     Self-consistent Calculation

     iteration #  1     ecut=    24.00 Ry     beta=0.70
     Davidson diagonalization with overlap
     ethr =  1.00E-02,  avg # of iterations =  2.0

     Threshold (ethr) on eigenvalues was too large:
     Diagonalizing with lowered threshold

     Davidson diagonalization with overlap
     ethr =  8.62E-04,  avg # of iterations =  1.0

     total cpu time spent up to now is        0.2 secs

     total energy              =     -15.85013939 Ry
     Harris-Foulkes estimate   =     -15.87379911 Ry
     estimated scf accuracy    <       0.06837549 Ry

     iteration #  2     ecut=    24.00 Ry     beta=0.70
     Davidson diagonalization with overlap
     ethr =  8.55E-04,  avg # of iterations =  1.0

     total cpu time spent up to now is        0.3 secs

     total energy              =     -15.85343138 Ry
     Harris-Foulkes estimate   =     -15.85378719 Ry
     estimated scf accuracy    <       0.00241345 Ry

     iteration #  3     ecut=    24.00 Ry     beta=0.70
     Davidson diagonalization with overlap
     ethr =  3.02E-05,  avg # of iterations =  1.9

     total cpu time spent up to now is        0.3 secs

     total energy              =     -15.85383302 Ry
     Harris-Foulkes estimate   =     -15.85386049 Ry
     estimated scf accuracy    <       0.00006839 Ry

     iteration #  4     ecut=    24.00 Ry     beta=0.70
     Davidson diagonalization with overlap
     ethr =  8.55E-07,  avg # of iterations =  2.1

     total cpu time spent up to now is        0.4 secs

     total energy              =     -15.85385055 Ry
     Harris-Foulkes estimate   =     -15.85385264 Ry
     estimated scf accuracy    <       0.00000508 Ry

     iteration #  5     ecut=    24.00 Ry     beta=0.70
     Davidson diagonalization with overlap
     ethr =  6.35E-08,  avg # of iterations =  2.1

     total cpu time spent up to now is        0.4 secs

     total energy              =     -15.85385143 Ry
     Harris-Foulkes estimate   =     -15.85385147 Ry
     estimated scf accuracy    <       0.00000007 Ry

     iteration #  6     ecut=    24.00 Ry     beta=0.70
     Davidson diagonalization with overlap
     ethr =  8.48E-10,  avg # of iterations =  2.5

     total cpu time spent up to now is        0.4 secs

     total energy              =     -15.85385145 Ry
     Harris-Foulkes estimate   =     -15.85385145 Ry
     estimated scf accuracy    <          3.4E-10 Ry

     iteration #  7     ecut=    24.00 Ry     beta=0.70
     Davidson diagonalization with overlap
     ethr =  4.20E-12,  avg # of iterations =  3.9

     total cpu time spent up to now is        0.5 secs

     total energy              =     -15.85385145 Ry
     Harris-Foulkes estimate   =     -15.85385145 Ry
     estimated scf accuracy    <          6.5E-12 Ry

     iteration #  8     ecut=    24.00 Ry     beta=0.70
     Davidson diagonalization with overlap
     ethr =  1.00E-13,  avg # of iterations =  2.6

     total cpu time spent up to now is        0.5 secs

     End of self-consistent calculation

          k = 0.0000 0.0000 0.0000 (   531 PWs)   bands (ev):

    -5.8298   6.2602   6.2602   6.2602

          k =-0.2500 0.2500-0.2500 (   531 PWs)   bands (ev):

    -5.0163   2.2803   5.4898   5.4898

          k = 0.5000-0.5000 0.5000 (   544 PWs)   bands (ev):

    -3.4435  -0.8222   5.0488   5.0488

          k = 0.0000 0.5000 0.0000 (   528 PWs)   bands (ev):

    -4.7302   2.7328   4.3342   4.3342

          k = 0.7500-0.2500 0.7500 (   529 PWs)   bands (ev):

    -3.0601  -0.1827   2.6418   4.0173

          k = 0.5000 0.0000 0.5000 (   524 PWs)   bands (ev):

    -3.7482   0.7368   2.4091   4.9135

          k = 0.0000-1.0000 0.0000 (   524 PWs)   bands (ev):

    -1.6182  -1.6182   3.3581   3.3581

          k =-0.5000-1.0000 0.0000 (   516 PWs)   bands (ev):

    -1.4420  -1.4420   2.3021   2.3021

     highest occupied level (ev):     6.2602

!    total energy              =     -15.85385145 Ry
     Harris-Foulkes estimate   =     -15.85385145 Ry
     estimated scf accuracy    <          5.4E-13 Ry

     The total energy is the sum of the following terms:

     one-electron contribution =       4.77200804 Ry
     hartree contribution      =       1.10398715 Ry
     xc contribution           =      -4.83008807 Ry
     ewald contribution        =     -16.89975858 Ry

     convergence has been achieved in   8 iterations

     Writing output data file silicon.save

     init_run     :      0.12s CPU      0.12s WALL (       1 calls)
     electrons    :      0.38s CPU      0.38s WALL (       1 calls)

     Called by init_run:
     wfcinit      :      0.02s CPU      0.02s WALL (       1 calls)
     potinit      :      0.00s CPU      0.00s WALL (       1 calls)

     Called by electrons:
     c_bands      :      0.29s CPU      0.29s WALL (       9 calls)
     sum_band     :      0.08s CPU      0.08s WALL (       9 calls)
     v_of_rho     :      0.01s CPU      0.01s WALL (       9 calls)
     mix_rho      :      0.00s CPU      0.01s WALL (       9 calls)

     Called by c_bands:
     init_us_2    :      0.01s CPU      0.01s WALL (     152 calls)
     cegterg      :      0.29s CPU      0.28s WALL (      72 calls)

     Called by sum_band:

     Called by *egterg:
     h_psi        :      0.30s CPU      0.26s WALL (     233 calls)
     g_psi        :      0.00s CPU      0.00s WALL (     153 calls)
     cdiaghg      :      0.00s CPU      0.01s WALL (     217 calls)

     Called by h_psi:
     add_vuspsi   :      0.00s CPU      0.01s WALL (     233 calls)

     General routines
     calbec       :      0.01s CPU      0.01s WALL (     233 calls)
     fft          :      0.01s CPU      0.01s WALL (      37 calls)
     fftw         :      0.30s CPU      0.26s WALL (    2030 calls)
     davcio       :      0.00s CPU      0.00s WALL (       8 calls)

     Parallel routines
     fft_scatter  :      0.02s CPU      0.02s WALL (    2067 calls)

     PWSCF        :     0.60s CPU         0.60s WALL


   This run was terminated on:  12:35:34  21Jul2016            

=------------------------------------------------------------------------------=
   JOB DONE.
=------------------------------------------------------------------------------=
