
     Program PWSCF v.5.4.0 starts on 20Jul2016 at 17: 8:49 

     This program is part of the open-source Quantum ESPRESSO suite
     for quantum simulation of materials; please cite
         "P. Giannozzi et al., J. Phys.:Condens. Matter 21 395502 (2009);
          URL http://www.quantum-espresso.org", 
     in publications or presentations arising from this work. More details at
     http://www.quantum-espresso.org/quote

     Parallel version (MPI), running on     1 processors
     Reading input from pw.in
     Message from routine read_cards :
     DEPRECATED: no units specified in ATOMIC_POSITIONS card
     Message from routine read_cards :
     ATOMIC_POSITIONS: units set to alat

     Current dimensions of program PWSCF are:
     Max number of different atomic species (ntypx) = 10
     Max number of k-points (npk) =  40000
     Max angular momentum in pseudopotentials (lmaxx) =  3

     Subspace diagonalization in iterative solution of the eigenvalue problem:
     a serial algorithm will be used


     G-vector sticks info
     --------------------
     sticks:   dense  smooth     PW     G-vecs:    dense   smooth      PW
     Sum         349     349    109                 4279     4279     749



     bravais-lattice index     =            2
     lattice parameter (alat)  =      10.2000  a.u.
     unit-cell volume          =     265.3020 (a.u.)^3
     number of atoms/cell      =            2
     number of atomic types    =            1
     number of electrons       =         8.00
     number of Kohn-Sham states=            4
     kinetic-energy cutoff     =      24.0000  Ry
     charge density cutoff     =      96.0000  Ry
     convergence threshold     =      1.0E-12
     mixing beta               =       0.7000
     number of iterations used =            8  plain     mixing
     Exchange-correlation      =  SLA  PZ   NOGX NOGC ( 1  1  0  0 0 0)

     celldm(1)=  10.200000  celldm(2)=   0.000000  celldm(3)=   0.000000
     celldm(4)=   0.000000  celldm(5)=   0.000000  celldm(6)=   0.000000

     crystal axes: (cart. coord. in units of alat)
               a(1) = (  -0.500000   0.000000   0.500000 )  
               a(2) = (   0.000000   0.500000   0.500000 )  
               a(3) = (  -0.500000   0.500000   0.000000 )  

     reciprocal axes: (cart. coord. in units 2 pi/alat)
               b(1) = ( -1.000000 -1.000000  1.000000 )  
               b(2) = (  1.000000  1.000000  1.000000 )  
               b(3) = ( -1.000000  1.000000 -1.000000 )  


     PseudoPot. # 1 for Si read from file:
     ./UPF/Si.pz-vbc.UPF
     MD5 check sum: 6dfa03ddd5817404712e03e4d12deb78
     Pseudo is Norm-conserving, Zval =  4.0
     Generated by new atomic code, or converted to UPF format
     Using radial grid of  431 points,  2 beta functions with: 
                l(1) =   0
                l(2) =   1

     atomic species   valence    mass     pseudopotential
        Si             4.00    28.08600     Si( 1.00)

     48 Sym. Ops., with inversion, found (24 have fractional translation)



   Cartesian axes

     site n.     atom                  positions (alat units)
         1           Si  tau(   1) = (   0.0000000   0.0000000   0.0000000  )
         2           Si  tau(   2) = (   0.2500000   0.2500000   0.2500000  )

     number of k points=     8
                       cart. coord. in units 2pi/alat
        k(    1) = (   0.0000000   0.0000000   0.0000000), wk =   0.0312500
        k(    2) = (  -0.2500000   0.2500000  -0.2500000), wk =   0.2500000
        k(    3) = (   0.5000000  -0.5000000   0.5000000), wk =   0.1250000
        k(    4) = (   0.0000000   0.5000000   0.0000000), wk =   0.1875000
        k(    5) = (   0.7500000  -0.2500000   0.7500000), wk =   0.7500000
        k(    6) = (   0.5000000   0.0000000   0.5000000), wk =   0.3750000
        k(    7) = (   0.0000000  -1.0000000   0.0000000), wk =   0.0937500
        k(    8) = (  -0.5000000  -1.0000000   0.0000000), wk =   0.1875000

     Dense  grid:     4279 G-vectors     FFT dimensions: (  24,  24,  24)

     Largest allocated arrays     est. size (Mb)     dimensions
        Kohn-Sham Wavefunctions         0.03 Mb     (     544,    4)
        NL pseudopotentials             0.07 Mb     (     544,    8)
        Each V/rho on FFT grid          0.21 Mb     (   13824)
        Each G-vector array             0.03 Mb     (    4279)
        G-vector shells                 0.00 Mb     (      86)
     Largest temporary arrays     est. size (Mb)     dimensions
        Auxiliary wavefunctions         0.13 Mb     (     544,   16)
        Each subspace H/S matrix        0.00 Mb     (      16,   16)
        Each <psi_i|beta_j> matrix      0.00 Mb     (       8,    4)
        Arrays for rho mixing           1.69 Mb     (   13824,    8)

     Initial potential from superposition of free atoms

     starting charge    7.99901, renormalised to    8.00000
     Starting wfc are    8 randomized atomic wfcs

     total cpu time spent up to now is        0.2 secs

     per-process dynamical memory:     5.8 Mb

     Self-consistent Calculation

     iteration #  1     ecut=    24.00 Ry     beta=0.70
     Davidson diagonalization with overlap
     ethr =  1.00E-02,  avg # of iterations =  2.0

     Threshold (ethr) on eigenvalues was too large:
     Diagonalizing with lowered threshold

     Davidson diagonalization with overlap
     ethr =  8.65E-04,  avg # of iterations =  1.0

     total cpu time spent up to now is        0.2 secs

     total energy              =     -15.83308939 Ry
     Harris-Foulkes estimate   =     -15.85654120 Ry
     estimated scf accuracy    <       0.06798472 Ry

     iteration #  2     ecut=    24.00 Ry     beta=0.70
     Davidson diagonalization with overlap
     ethr =  8.50E-04,  avg # of iterations =  1.0

     total cpu time spent up to now is        0.3 secs

     total energy              =     -15.83639124 Ry
     Harris-Foulkes estimate   =     -15.83673590 Ry
     estimated scf accuracy    <       0.00238861 Ry

     iteration #  3     ecut=    24.00 Ry     beta=0.70
     Davidson diagonalization with overlap
     ethr =  2.99E-05,  avg # of iterations =  1.9

     total cpu time spent up to now is        0.3 secs

     total energy              =     -15.83676331 Ry
     Harris-Foulkes estimate   =     -15.83679093 Ry
     estimated scf accuracy    <       0.00007123 Ry

     iteration #  4     ecut=    24.00 Ry     beta=0.70
     Davidson diagonalization with overlap
     ethr =  8.90E-07,  avg # of iterations =  2.0

     total cpu time spent up to now is        0.4 secs

     total energy              =     -15.83678094 Ry
     Harris-Foulkes estimate   =     -15.83678383 Ry
     estimated scf accuracy    <       0.00000613 Ry

     iteration #  5     ecut=    24.00 Ry     beta=0.70
     Davidson diagonalization with overlap
     ethr =  7.67E-08,  avg # of iterations =  2.1

     total cpu time spent up to now is        0.4 secs

     total energy              =     -15.83678202 Ry
     Harris-Foulkes estimate   =     -15.83678208 Ry
     estimated scf accuracy    <       0.00000012 Ry

     iteration #  6     ecut=    24.00 Ry     beta=0.70
     Davidson diagonalization with overlap
     ethr =  1.49E-09,  avg # of iterations =  2.4

     total cpu time spent up to now is        0.5 secs

     total energy              =     -15.83678205 Ry
     Harris-Foulkes estimate   =     -15.83678205 Ry
     estimated scf accuracy    <          5.0E-10 Ry

     iteration #  7     ecut=    24.00 Ry     beta=0.70
     Davidson diagonalization with overlap
     ethr =  6.23E-12,  avg # of iterations =  3.4

     total cpu time spent up to now is        0.5 secs

     total energy              =     -15.83678205 Ry
     Harris-Foulkes estimate   =     -15.83678205 Ry
     estimated scf accuracy    <          3.1E-11 Ry

     iteration #  8     ecut=    24.00 Ry     beta=0.70
     Davidson diagonalization with overlap
     ethr =  3.86E-13,  avg # of iterations =  1.8

     total cpu time spent up to now is        0.5 secs

     total energy              =     -15.83678205 Ry
     Harris-Foulkes estimate   =     -15.83678205 Ry
     estimated scf accuracy    <          1.2E-12 Ry

     iteration #  9     ecut=    24.00 Ry     beta=0.70
     Davidson diagonalization with overlap
     ethr =  1.00E-13,  avg # of iterations =  1.1

     total cpu time spent up to now is        0.6 secs

     End of self-consistent calculation

          k = 0.0000 0.0000 0.0000 (   531 PWs)   bands (ev):

    -5.7903   6.2775   6.2775   6.2775

          k =-0.2500 0.2500-0.2500 (   531 PWs)   bands (ev):

    -4.9756   2.3131   5.5019   5.5019

          k = 0.5000-0.5000 0.5000 (   544 PWs)   bands (ev):

    -3.3938  -0.8001   5.0574   5.0574

          k = 0.0000 0.5000 0.0000 (   528 PWs)   bands (ev):

    -4.6895   2.7859   4.3419   4.3419

          k = 0.7500-0.2500 0.7500 (   529 PWs)   bands (ev):

    -3.0137  -0.1421   2.6549   4.0228

          k = 0.5000 0.0000 0.5000 (   524 PWs)   bands (ev):

    -3.7042   0.7809   2.4181   4.9226

          k = 0.0000-1.0000 0.0000 (   524 PWs)   bands (ev):

    -1.5717  -1.5717   3.3604   3.3604

          k =-0.5000-1.0000 0.0000 (   516 PWs)   bands (ev):

    -1.3914  -1.3914   2.3060   2.3060

     highest occupied level (ev):     6.2775

!    total energy              =     -15.83678205 Ry
     Harris-Foulkes estimate   =     -15.83678205 Ry
     estimated scf accuracy    <          3.7E-14 Ry

     The total energy is the sum of the following terms:

     one-electron contribution =       4.78816807 Ry
     hartree contribution      =       1.10090137 Ry
     xc contribution           =      -4.82609291 Ry
     ewald contribution        =     -16.89975858 Ry

     convergence has been achieved in   9 iterations

     Forces acting on atoms (Ry/au):

     atom    1 type  1   force =     0.00000000    0.00000000    0.00000000
     atom    2 type  1   force =    -0.00000000   -0.00000000   -0.00000000

     Total force =     0.000000     Total SCF correction =     0.000000


     entering subroutine stress ...

          total   stress  (Ry/bohr**3)                   (kbar)     P=    5.53
   0.00003760   0.00000000   0.00000000          5.53      0.00      0.00
   0.00000000   0.00003760  -0.00000000          0.00      5.53     -0.00
   0.00000000  -0.00000000   0.00003760          0.00     -0.00      5.53


     Writing output data file silicon.save

     init_run     :      0.14s CPU      0.14s WALL (       1 calls)
     electrons    :      0.41s CPU      0.41s WALL (       1 calls)
     forces       :      0.01s CPU      0.01s WALL (       1 calls)
     stress       :      0.04s CPU      0.04s WALL (       1 calls)

     Called by init_run:
     wfcinit      :      0.04s CPU      0.04s WALL (       1 calls)
     potinit      :      0.00s CPU      0.00s WALL (       1 calls)

     Called by electrons:
     c_bands      :      0.30s CPU      0.31s WALL (      10 calls)
     sum_band     :      0.10s CPU      0.09s WALL (      10 calls)
     v_of_rho     :      0.01s CPU      0.02s WALL (      10 calls)
     mix_rho      :      0.00s CPU      0.01s WALL (      10 calls)

     Called by c_bands:
     init_us_2    :      0.03s CPU      0.02s WALL (     184 calls)
     cegterg      :      0.29s CPU      0.29s WALL (      80 calls)

     Called by sum_band:

     Called by *egterg:
     h_psi        :      0.27s CPU      0.29s WALL (     237 calls)
     g_psi        :      0.00s CPU      0.00s WALL (     149 calls)
     cdiaghg      :      0.01s CPU      0.01s WALL (     221 calls)

     Called by h_psi:
     add_vuspsi   :      0.00s CPU      0.01s WALL (     237 calls)

     General routines
     calbec       :      0.00s CPU      0.01s WALL (     277 calls)
     fft          :      0.02s CPU      0.02s WALL (      46 calls)
     fftw         :      0.29s CPU      0.29s WALL (    2148 calls)
     davcio       :      0.00s CPU      0.00s WALL (       8 calls)

     Parallel routines
     fft_scatter  :      0.02s CPU      0.02s WALL (    2194 calls)

     PWSCF        :     0.66s CPU         0.68s WALL


   This run was terminated on:  17: 8:50  20Jul2016            

=------------------------------------------------------------------------------=
   JOB DONE.
=------------------------------------------------------------------------------=
