
     Program PHONON v.6.4.1 starts on 25Jun2019 at 10:27:39 

     This program is part of the open-source Quantum ESPRESSO suite
     for quantum simulation of materials; please cite
         "P. Giannozzi et al., J. Phys.:Condens. Matter 21 395502 (2009);
         "P. Giannozzi et al., J. Phys.:Condens. Matter 29 465901 (2017);
          URL http://www.quantum-espresso.org", 
     in publications or presentations arising from this work. More details at
     http://www.quantum-espresso.org/quote

     Parallel version (MPI), running on     4 processors

     MPI processes distributed on     1 nodes
     R & G space division:  proc/nbgrp/npool/nimage =       4

     Reading data from directory:
     ./tmp/silicon.save/

     IMPORTANT: XC functional enforced from input :
     Exchange-correlation      = PZ ( 1  1  0  0 0 0)
     Any further DFT definition will be discarded
     Please, verify this is what you really want


     Parallelization info
     --------------------
     sticks:   dense  smooth     PW     G-vecs:    dense   smooth      PW
     Min          82      82     27                  985      985     181
     Max          85      85     28                  986      986     182
     Sum         337     337    109                 3943     3943     725



     Dynamical matrices for ( 4, 4, 4)  uniform grid of q-points
     (   8 q-points):
       N         xq(1)         xq(2)         xq(3) 
       1   0.000000000   0.000000000   0.000000000
       2  -0.250000000   0.250000000  -0.250000000
       3   0.500000000  -0.500000000   0.500000000
       4   0.000000000   0.500000000   0.000000000
       5   0.750000000  -0.250000000   0.750000000
       6   0.500000000   0.000000000   0.500000000
       7   0.000000000  -1.000000000   0.000000000
       8  -0.500000000  -1.000000000   0.000000000

     Calculation of q =    0.0000000   0.0000000   0.0000000

     Ph                                                                         

     bravais-lattice index     =            2
     lattice parameter (alat)  =      10.0000  a.u.
     unit-cell volume          =     250.0000 (a.u.)^3
     number of atoms/cell      =            2
     number of atomic types    =            1
     kinetic-energy cut-off    =      24.0000  Ry
     charge density cut-off    =      96.0000  Ry
     convergence threshold     =      1.0E-16
     beta                      =       0.7000
     number of iterations used =            4
     Exchange-correlation      = PZ ( 1  1  0  0 0 0)


     celldm(1)=   10.00000  celldm(2)=    0.00000  celldm(3)=    0.00000
     celldm(4)=    0.00000  celldm(5)=    0.00000  celldm(6)=    0.00000

     crystal axes: (cart. coord. in units of alat)
               a(1) = ( -0.5000  0.0000  0.5000 )  
               a(2) = (  0.0000  0.5000  0.5000 )  
               a(3) = ( -0.5000  0.5000  0.0000 )  

     reciprocal axes: (cart. coord. in units 2 pi/alat)
               b(1) = ( -1.0000 -1.0000  1.0000 )  
               b(2) = (  1.0000  1.0000  1.0000 )  
               b(3) = ( -1.0000  1.0000 -1.0000 )  


     Atoms inside the unit cell: 

     Cartesian axes

     site n.  atom      mass           positions (alat units)
        1     Si  28.0860   tau(    1) = (    0.00000    0.00000    0.00000  )
        2     Si  28.0860   tau(    2) = (    0.25000    0.25000    0.25000  )

     Computing dynamical matrix for 
                    q = (   0.0000000   0.0000000   0.0000000 )

     49 Sym.Ops. (with q -> -q+G )


     G cutoff =  243.1708  (    986 G-vectors)     FFT grid: ( 24, 24, 24)
     number of k points=     8

     PseudoPot. # 1 for Si read from file:
     ../Si.pz-rrkj.UPF
     MD5 check sum: 884b380b739b48e9cd334294cddc9a8d
     Pseudo is Norm-conserving, Zval =  4.0
     Generated using "atomic" code by A. Dal Corso (espresso distribution)
     Using radial grid of 1141 points,  2 beta functions with: 
                l(1) =   0
                l(2) =   1

     Mode symmetry, O_h (m-3m)  point group:


     Electric field:
     Dielectric constant
     Born effective charges in two ways 


     Atomic displacements:
     There are   2 irreducible representations

     Representation     1      3 modes -T_2g G_25' G_5+  To be done

     Representation     2      3 modes -T_1u G_15  G_4-  To be done



     Alpha used in Ewald sum =   1.0000
     PHONON       :      0.23s CPU      0.24s WALL


     Electric Fields Calculation

      iter #   1 total cpu time :     0.6 secs   av.it.:   5.7
      thresh= 1.000E-02 alpha_mix =  0.700 |ddv_scf|^2 =  6.353E-07

      iter #   2 total cpu time :     0.8 secs   av.it.:   9.1
      thresh= 7.971E-05 alpha_mix =  0.700 |ddv_scf|^2 =  2.719E-08

      iter #   3 total cpu time :     1.1 secs   av.it.:   9.1
      thresh= 1.649E-05 alpha_mix =  0.700 |ddv_scf|^2 =  3.744E-10

      iter #   4 total cpu time :     1.4 secs   av.it.:   9.2
      thresh= 1.935E-06 alpha_mix =  0.700 |ddv_scf|^2 =  1.635E-12

      iter #   5 total cpu time :     1.6 secs   av.it.:   8.9
      thresh= 1.279E-07 alpha_mix =  0.700 |ddv_scf|^2 =  1.283E-15

      iter #   6 total cpu time :     1.8 secs   av.it.:   9.0
      thresh= 3.582E-09 alpha_mix =  0.700 |ddv_scf|^2 =  1.004E-17

     End of electric fields calculation

          Dielectric constant in cartesian axis 

          (      23.856960583      -0.000000000      -0.000000000 )
          (       0.000000000      23.856960583       0.000000000 )
          (      -0.000000000      -0.000000000      23.856960583 )

          Effective charges (d Force / dE) in cartesian axis

           atom      1   Si 
      Ex  (       -1.23402       -0.00000        0.00000 )
      Ey  (       -0.00000       -1.23402        0.00000 )
      Ez  (        0.00000       -0.00000       -1.23402 )
           atom      2   Si 
      Ex  (       -1.23402        0.00000       -0.00000 )
      Ey  (       -0.00000       -1.23402        0.00000 )
      Ez  (       -0.00000        0.00000       -1.23402 )


     Representation #  1 modes #   1  2  3

     Self-consistent Calculation

      iter #   1 total cpu time :     2.1 secs   av.it.:   5.0
      thresh= 1.000E-02 alpha_mix =  0.700 |ddv_scf|^2 =  1.117E-07

      iter #   2 total cpu time :     2.3 secs   av.it.:   8.8
      thresh= 3.343E-05 alpha_mix =  0.700 |ddv_scf|^2 =  1.883E-09

      iter #   3 total cpu time :     2.6 secs   av.it.:   8.8
      thresh= 4.339E-06 alpha_mix =  0.700 |ddv_scf|^2 =  2.753E-11

      iter #   4 total cpu time :     2.8 secs   av.it.:   8.2
      thresh= 5.247E-07 alpha_mix =  0.700 |ddv_scf|^2 =  1.827E-14

      iter #   5 total cpu time :     3.1 secs   av.it.:   9.0
      thresh= 1.352E-08 alpha_mix =  0.700 |ddv_scf|^2 =  1.255E-16

      iter #   6 total cpu time :     3.4 secs   av.it.:   8.8
      thresh= 1.120E-09 alpha_mix =  0.700 |ddv_scf|^2 =  2.063E-18

     End of self-consistent calculation

     Convergence has been achieved 


     Representation #  2 modes #   4  5  6

     Self-consistent Calculation

      iter #   1 total cpu time :     3.6 secs   av.it.:   5.1
      thresh= 1.000E-02 alpha_mix =  0.700 |ddv_scf|^2 =  8.129E-08

      iter #   2 total cpu time :     3.9 secs   av.it.:   9.2
      thresh= 2.851E-05 alpha_mix =  0.700 |ddv_scf|^2 =  3.235E-09

      iter #   3 total cpu time :     4.2 secs   av.it.:   9.2
      thresh= 5.688E-06 alpha_mix =  0.700 |ddv_scf|^2 =  3.609E-11

      iter #   4 total cpu time :     4.7 secs   av.it.:   9.0
      thresh= 6.008E-07 alpha_mix =  0.700 |ddv_scf|^2 =  6.188E-14

      iter #   5 total cpu time :     5.2 secs   av.it.:   9.4
      thresh= 2.488E-08 alpha_mix =  0.700 |ddv_scf|^2 =  8.631E-16

      iter #   6 total cpu time :     5.6 secs   av.it.:   9.0
      thresh= 2.938E-09 alpha_mix =  0.700 |ddv_scf|^2 =  4.664E-19

     End of self-consistent calculation

     Convergence has been achieved 

     Number of q in the star =    1
     List of q in the star:
          1   0.000000000   0.000000000   0.000000000

          Dielectric constant in cartesian axis 

          (      23.856960583      -0.000000000      -0.000000000 )
          (       0.000000000      23.856960583       0.000000000 )
          (      -0.000000000      -0.000000000      23.856960583 )

          Effective charges (d Force / dE) in cartesian axis

           atom      1   Si 
      Ex  (       -1.23402       -0.00000        0.00000 )
      Ey  (       -0.00000       -1.23402        0.00000 )
      Ez  (        0.00000       -0.00000       -1.23402 )
           atom      2   Si 
      Ex  (       -1.23402        0.00000       -0.00000 )
      Ey  (       -0.00000       -1.23402        0.00000 )
      Ez  (       -0.00000        0.00000       -1.23402 )

          Effective charges (d P / du) in cartesian axis 

           atom      1   Si 
      Px  (       -1.23402        0.00000        0.00000 )
      Py  (        0.00000       -1.23402        0.00000 )
      Pz  (        0.00000       -0.00000       -1.23402 )
           atom      2   Si 
      Px  (       -1.23402        0.00000        0.00000 )
      Py  (        0.00000       -1.23402       -0.00000 )
      Pz  (        0.00000       -0.00000       -1.23402 )

     Diagonalizing the dynamical matrix

     q = (    0.000000000   0.000000000   0.000000000 ) 

 **************************************************************************
     freq (    1) =       0.126629 [THz] =       4.223901 [cm-1]
     freq (    2) =       0.126629 [THz] =       4.223901 [cm-1]
     freq (    3) =       0.126629 [THz] =       4.223901 [cm-1]
     freq (    4) =      16.434122 [THz] =     548.183302 [cm-1]
     freq (    5) =      16.434122 [THz] =     548.183302 [cm-1]
     freq (    6) =      16.434122 [THz] =     548.183302 [cm-1]
 **************************************************************************

     Mode symmetry, O_h (m-3m)  point group:

     freq (  1 -  3) =          4.2  [cm-1]   --> T_1u G_15  G_4- I  
     freq (  4 -  6) =        548.2  [cm-1]   --> T_2g G_25' G_5+ R  

     Calculation of q =   -0.2500000   0.2500000  -0.2500000

     Subspace diagonalization in iterative solution of the eigenvalue problem:
     a serial algorithm will be used


     Parallelization info
     --------------------
     sticks:   dense  smooth     PW     G-vecs:    dense   smooth      PW
     Min          82      82     30                  985      985     216
     Max          85      85     31                  986      986     218
     Sum         337     337    121                 3943     3943     869


     Title: 
     Ph                                                                         


     bravais-lattice index     =            2
     lattice parameter (alat)  =      10.0000  a.u.
     unit-cell volume          =     250.0000 (a.u.)^3
     number of atoms/cell      =            2
     number of atomic types    =            1
     number of electrons       =         8.00
     number of Kohn-Sham states=            4
     kinetic-energy cutoff     =      24.0000  Ry
     charge density cutoff     =      96.0000  Ry
     Exchange-correlation      = PZ ( 1  1  0  0 0 0)

     celldm(1)=  10.000000  celldm(2)=   0.000000  celldm(3)=   0.000000
     celldm(4)=   0.000000  celldm(5)=   0.000000  celldm(6)=   0.000000

     crystal axes: (cart. coord. in units of alat)
               a(1) = (  -0.500000   0.000000   0.500000 )  
               a(2) = (   0.000000   0.500000   0.500000 )  
               a(3) = (  -0.500000   0.500000   0.000000 )  

     reciprocal axes: (cart. coord. in units 2 pi/alat)
               b(1) = ( -1.000000 -1.000000  1.000000 )  
               b(2) = (  1.000000  1.000000  1.000000 )  
               b(3) = ( -1.000000  1.000000 -1.000000 )  


     PseudoPot. # 1 for Si read from file:
     ../Si.pz-rrkj.UPF
     MD5 check sum: 884b380b739b48e9cd334294cddc9a8d
     Pseudo is Norm-conserving, Zval =  4.0
     Generated using "atomic" code by A. Dal Corso (espresso distribution)
     Using radial grid of 1141 points,  2 beta functions with: 
                l(1) =   0
                l(2) =   1

     atomic species   valence    mass     pseudopotential
        Si             4.00    28.08600     Si( 1.00)

     48 Sym. Ops., with inversion, found



   Cartesian axes

     site n.     atom                  positions (alat units)
         1           Si  tau(   1) = (   0.0000000   0.0000000   0.0000000  )
         2           Si  tau(   2) = (   0.2500000   0.2500000   0.2500000  )

     number of k points=    40
                       cart. coord. in units 2pi/alat
        k(    1) = (   0.0000000   0.0000000   0.0000000), wk =   0.0312500
        k(    2) = (  -0.2500000   0.2500000  -0.2500000), wk =   0.0000000
        k(    3) = (  -0.2500000   0.2500000  -0.2500000), wk =   0.0312500
        k(    4) = (  -0.5000000   0.5000000  -0.5000000), wk =   0.0000000
        k(    5) = (   0.5000000  -0.5000000   0.5000000), wk =   0.0312500
        k(    6) = (   0.2500000  -0.2500000   0.2500000), wk =   0.0000000
        k(    7) = (   0.0000000   0.5000000   0.0000000), wk =   0.0937500
        k(    8) = (  -0.2500000   0.7500000  -0.2500000), wk =   0.0000000
        k(    9) = (   0.7500000  -0.2500000   0.7500000), wk =   0.0937500
        k(   10) = (   0.5000000   0.0000000   0.5000000), wk =   0.0000000
        k(   11) = (   0.5000000   0.0000000   0.5000000), wk =   0.0937500
        k(   12) = (   0.2500000   0.2500000   0.2500000), wk =   0.0000000
        k(   13) = (   0.0000000  -1.0000000   0.0000000), wk =   0.0937500
        k(   14) = (  -0.2500000  -0.7500000  -0.2500000), wk =   0.0000000
        k(   15) = (  -0.5000000  -1.0000000   0.0000000), wk =   0.1875000
        k(   16) = (  -0.7500000  -0.7500000  -0.2500000), wk =   0.0000000
        k(   17) = (   0.2500000  -0.2500000  -0.2500000), wk =   0.0937500
        k(   18) = (   0.0000000   0.0000000  -0.5000000), wk =   0.0000000
        k(   19) = (   0.2500000  -0.2500000   0.2500000), wk =   0.0312500
        k(   20) = (   0.0000000   0.0000000   0.0000000), wk =   0.0000000
        k(   21) = (  -0.2500000  -0.2500000  -0.2500000), wk =   0.0937500
        k(   22) = (  -0.5000000   0.0000000  -0.5000000), wk =   0.0000000
        k(   23) = (  -0.5000000   0.5000000   0.5000000), wk =   0.0937500
        k(   24) = (  -0.7500000   0.7500000   0.2500000), wk =   0.0000000
        k(   25) = (   0.0000000   0.0000000   0.5000000), wk =   0.0937500
        k(   26) = (  -0.2500000   0.2500000   0.2500000), wk =   0.0000000
        k(   27) = (  -0.7500000   0.7500000   0.2500000), wk =   0.0937500
        k(   28) = (  -1.0000000   1.0000000   0.0000000), wk =   0.0000000
        k(   29) = (  -0.7500000   0.7500000  -0.2500000), wk =   0.0937500
        k(   30) = (  -1.0000000   1.0000000  -0.5000000), wk =   0.0000000
        k(   31) = (  -0.7500000   0.2500000   0.7500000), wk =   0.1875000
        k(   32) = (  -1.0000000   0.5000000   0.5000000), wk =   0.0000000
        k(   33) = (   0.7500000   0.2500000   0.7500000), wk =   0.0937500
        k(   34) = (   0.5000000   0.5000000   0.5000000), wk =   0.0000000
        k(   35) = (   0.7500000  -0.2500000  -0.7500000), wk =   0.1875000
        k(   36) = (   0.5000000   0.0000000  -1.0000000), wk =   0.0000000
        k(   37) = (  -0.5000000   0.5000000   0.0000000), wk =   0.0937500
        k(   38) = (  -0.7500000   0.7500000  -0.2500000), wk =   0.0000000
        k(   39) = (  -0.5000000   0.0000000   0.5000000), wk =   0.1875000
        k(   40) = (  -0.7500000   0.2500000   0.2500000), wk =   0.0000000

     Dense  grid:     3943 G-vectors     FFT dimensions: (  24,  24,  24)

     Estimated max dynamical RAM per process >       0.57 MB

     Estimated total dynamical RAM >       2.29 MB

     The potential is recalculated from file :
     ./tmp/_ph0/silicon.save/charge-density

     Starting wfcs are    8 atomic wfcs

     Band Structure Calculation
     Davidson diagonalization with overlap

     ethr =  1.25E-10,  avg # of iterations =  9.8

     total cpu time spent up to now is        0.5 secs

     End of band structure calculation

          k = 0.0000 0.0000 0.0000 (   531 PWs)   bands (ev):

    -5.6105   6.8997   6.8997   6.8997

          k =-0.2500 0.2500-0.2500 (   507 PWs)   bands (ev):

    -4.7538   2.8019   6.0914   6.0914

          k =-0.2500 0.2500-0.2500 (   507 PWs)   bands (ev):

    -4.7538   2.8019   6.0914   6.0914

          k =-0.5000 0.5000-0.5000 (   502 PWs)   bands (ev):

    -3.0679  -0.4753   5.6373   5.6373

          k = 0.5000-0.5000 0.5000 (   502 PWs)   bands (ev):

    -3.0679  -0.4753   5.6373   5.6373

          k = 0.2500-0.2500 0.2500 (   507 PWs)   bands (ev):

    -4.7538   2.8019   6.0914   6.0914

          k = 0.0000 0.5000 0.0000 (   504 PWs)   bands (ev):

    -4.4543   3.3802   4.8615   4.8615

          k =-0.2500 0.7500-0.2500 (   497 PWs)   bands (ev):

    -2.6826   0.2859   3.0877   4.5343

          k = 0.7500-0.2500 0.7500 (   497 PWs)   bands (ev):

    -2.6826   0.2859   3.0877   4.5343

          k = 0.5000 0.0000 0.5000 (   500 PWs)   bands (ev):

    -3.4132   1.2611   2.8176   5.4859

          k = 0.5000 0.0000 0.5000 (   500 PWs)   bands (ev):

    -3.4132   1.2611   2.8176   5.4859

          k = 0.2500 0.2500 0.2500 (   507 PWs)   bands (ev):

    -4.7538   2.8019   6.0914   6.0914

          k = 0.0000-1.0000 0.0000 (   468 PWs)   bands (ev):

    -1.1778  -1.1778   3.8397   3.8397

          k =-0.2500-0.7500-0.2500 (   497 PWs)   bands (ev):

    -2.6826   0.2859   3.0877   4.5343

          k =-0.5000-1.0000 0.0000 (   488 PWs)   bands (ev):

    -0.9720  -0.9720   2.6835   2.6835

          k =-0.7500-0.7500-0.2500 (   497 PWs)   bands (ev):

    -2.6826   0.2859   3.0877   4.5343

          k = 0.2500-0.2500-0.2500 (   507 PWs)   bands (ev):

    -4.7538   2.8019   6.0914   6.0914

          k = 0.0000 0.0000-0.5000 (   504 PWs)   bands (ev):

    -4.4543   3.3802   4.8615   4.8615

          k = 0.2500-0.2500 0.2500 (   507 PWs)   bands (ev):

    -4.7538   2.8019   6.0914   6.0914

          k = 0.0000 0.0000 0.0000 (   531 PWs)   bands (ev):

    -5.6105   6.8997   6.8997   6.8997

          k =-0.2500-0.2500-0.2500 (   507 PWs)   bands (ev):

    -4.7538   2.8019   6.0914   6.0914

          k =-0.5000 0.0000-0.5000 (   500 PWs)   bands (ev):

    -3.4132   1.2611   2.8176   5.4859

          k =-0.5000 0.5000 0.5000 (   502 PWs)   bands (ev):

    -3.0679  -0.4753   5.6373   5.6373

          k =-0.7500 0.7500 0.2500 (   497 PWs)   bands (ev):

    -2.6826   0.2859   3.0877   4.5343

          k = 0.0000 0.0000 0.5000 (   504 PWs)   bands (ev):

    -4.4543   3.3802   4.8615   4.8615

          k =-0.2500 0.2500 0.2500 (   507 PWs)   bands (ev):

    -4.7538   2.8019   6.0914   6.0914

          k =-0.7500 0.7500 0.2500 (   497 PWs)   bands (ev):

    -2.6826   0.2859   3.0877   4.5343

          k =-1.0000 1.0000 0.0000 (   468 PWs)   bands (ev):

    -1.1778  -1.1778   3.8397   3.8397

          k =-0.7500 0.7500-0.2500 (   497 PWs)   bands (ev):

    -2.6826   0.2859   3.0877   4.5343

          k =-1.0000 1.0000-0.5000 (   504 PWs)   bands (ev):

    -4.4543   3.3802   4.8615   4.8615

          k =-0.7500 0.2500 0.7500 (   497 PWs)   bands (ev):

    -2.6826   0.2859   3.0877   4.5343

          k =-1.0000 0.5000 0.5000 (   500 PWs)   bands (ev):

    -3.4132   1.2611   2.8176   5.4859

          k = 0.7500 0.2500 0.7500 (   497 PWs)   bands (ev):

    -2.6826   0.2859   3.0877   4.5343

          k = 0.5000 0.5000 0.5000 (   502 PWs)   bands (ev):

    -3.0679  -0.4753   5.6373   5.6373

          k = 0.7500-0.2500-0.7500 (   497 PWs)   bands (ev):

    -2.6826   0.2859   3.0877   4.5343

          k = 0.5000 0.0000-1.0000 (   488 PWs)   bands (ev):

    -0.9720  -0.9720   2.6835   2.6835

          k =-0.5000 0.5000 0.0000 (   500 PWs)   bands (ev):

    -3.4132   1.2611   2.8176   5.4859

          k =-0.7500 0.7500-0.2500 (   497 PWs)   bands (ev):

    -2.6826   0.2859   3.0877   4.5343

          k =-0.5000 0.0000 0.5000 (   500 PWs)   bands (ev):

    -3.4132   1.2611   2.8176   5.4859

          k =-0.7500 0.2500 0.2500 (   497 PWs)   bands (ev):

    -2.6826   0.2859   3.0877   4.5343

     highest occupied level (ev):     6.8997

     Writing output data file silicon.save/

     Ph                                                                         

     bravais-lattice index     =            2
     lattice parameter (alat)  =      10.0000  a.u.
     unit-cell volume          =     250.0000 (a.u.)^3
     number of atoms/cell      =            2
     number of atomic types    =            1
     kinetic-energy cut-off    =      24.0000  Ry
     charge density cut-off    =      96.0000  Ry
     convergence threshold     =      1.0E-16
     beta                      =       0.7000
     number of iterations used =            4
     Exchange-correlation      = PZ ( 1  1  0  0 0 0)


     celldm(1)=   10.00000  celldm(2)=    0.00000  celldm(3)=    0.00000
     celldm(4)=    0.00000  celldm(5)=    0.00000  celldm(6)=    0.00000

     crystal axes: (cart. coord. in units of alat)
               a(1) = ( -0.5000  0.0000  0.5000 )  
               a(2) = (  0.0000  0.5000  0.5000 )  
               a(3) = ( -0.5000  0.5000  0.0000 )  

     reciprocal axes: (cart. coord. in units 2 pi/alat)
               b(1) = ( -1.0000 -1.0000  1.0000 )  
               b(2) = (  1.0000  1.0000  1.0000 )  
               b(3) = ( -1.0000  1.0000 -1.0000 )  


     Atoms inside the unit cell: 

     Cartesian axes

     site n.  atom      mass           positions (alat units)
        1     Si  28.0860   tau(    1) = (    0.00000    0.00000    0.00000  )
        2     Si  28.0860   tau(    2) = (    0.25000    0.25000    0.25000  )

     Computing dynamical matrix for 
                    q = (  -0.2500000   0.2500000  -0.2500000 )

      6 Sym.Ops. (no q -> -q+G )


     G cutoff =  243.1708  (    986 G-vectors)     FFT grid: ( 24, 24, 24)
     number of k points=    40

     PseudoPot. # 1 for Si read from file:
     ../Si.pz-rrkj.UPF
     MD5 check sum: 884b380b739b48e9cd334294cddc9a8d
     Pseudo is Norm-conserving, Zval =  4.0
     Generated using "atomic" code by A. Dal Corso (espresso distribution)
     Using radial grid of 1141 points,  2 beta functions with: 
                l(1) =   0
                l(2) =   1

     Mode symmetry, C_3v (3m)   point group:


     Atomic displacements:
     There are   4 irreducible representations

     Representation     1      1 modes -A_1  L_1  To be done

     Representation     2      1 modes -A_1  L_1  To be done

     Representation     3      2 modes -E    L_3  To be done

     Representation     4      2 modes -E    L_3  To be done



     Alpha used in Ewald sum =   1.0000
     PHONON       :      5.57s CPU      6.19s WALL



     Representation #  1 mode #   1

     Self-consistent Calculation

      iter #   1 total cpu time :     6.4 secs   av.it.:   5.8
      thresh= 1.000E-02 alpha_mix =  0.700 |ddv_scf|^2 =  1.556E-03

      iter #   2 total cpu time :     6.5 secs   av.it.:   7.7
      thresh= 3.944E-03 alpha_mix =  0.700 |ddv_scf|^2 =  2.200E-02

      iter #   3 total cpu time :     6.6 secs   av.it.:   6.6
      thresh= 1.000E-02 alpha_mix =  0.700 |ddv_scf|^2 =  1.096E-06

      iter #   4 total cpu time :     6.8 secs   av.it.:   8.0
      thresh= 1.047E-04 alpha_mix =  0.700 |ddv_scf|^2 =  8.676E-08

      iter #   5 total cpu time :     6.9 secs   av.it.:   7.6
      thresh= 2.946E-05 alpha_mix =  0.700 |ddv_scf|^2 =  3.758E-10

      iter #   6 total cpu time :     7.1 secs   av.it.:   7.8
      thresh= 1.938E-06 alpha_mix =  0.700 |ddv_scf|^2 =  9.445E-10

      iter #   7 total cpu time :     7.3 secs   av.it.:   6.7
      thresh= 3.073E-06 alpha_mix =  0.700 |ddv_scf|^2 =  1.577E-11

      iter #   8 total cpu time :     7.5 secs   av.it.:   7.8
      thresh= 3.971E-07 alpha_mix =  0.700 |ddv_scf|^2 =  2.739E-13

      iter #   9 total cpu time :     7.7 secs   av.it.:   7.0
      thresh= 5.233E-08 alpha_mix =  0.700 |ddv_scf|^2 =  8.059E-15

      iter #  10 total cpu time :     7.8 secs   av.it.:   7.7
      thresh= 8.977E-09 alpha_mix =  0.700 |ddv_scf|^2 =  4.511E-15

      iter #  11 total cpu time :     7.9 secs   av.it.:   7.2
      thresh= 6.717E-09 alpha_mix =  0.700 |ddv_scf|^2 =  8.005E-17

     End of self-consistent calculation

     Convergence has been achieved 


     Representation #  2 mode #   2

     Self-consistent Calculation

      iter #   1 total cpu time :     8.1 secs   av.it.:   5.8
      thresh= 1.000E-02 alpha_mix =  0.700 |ddv_scf|^2 =  1.556E-03

      iter #   2 total cpu time :     8.2 secs   av.it.:   7.7
      thresh= 3.944E-03 alpha_mix =  0.700 |ddv_scf|^2 =  2.200E-02

      iter #   3 total cpu time :     8.4 secs   av.it.:   6.6
      thresh= 1.000E-02 alpha_mix =  0.700 |ddv_scf|^2 =  1.093E-06

      iter #   4 total cpu time :     8.6 secs   av.it.:   8.1
      thresh= 1.045E-04 alpha_mix =  0.700 |ddv_scf|^2 =  8.663E-08

      iter #   5 total cpu time :     8.7 secs   av.it.:   7.6
      thresh= 2.943E-05 alpha_mix =  0.700 |ddv_scf|^2 =  7.046E-10

      iter #   6 total cpu time :     8.9 secs   av.it.:   7.5
      thresh= 2.654E-06 alpha_mix =  0.700 |ddv_scf|^2 =  1.335E-09

      iter #   7 total cpu time :     9.0 secs   av.it.:   6.6
      thresh= 3.654E-06 alpha_mix =  0.700 |ddv_scf|^2 =  9.155E-12

      iter #   8 total cpu time :     9.2 secs   av.it.:   8.0
      thresh= 3.026E-07 alpha_mix =  0.700 |ddv_scf|^2 =  2.847E-13

      iter #   9 total cpu time :     9.3 secs   av.it.:   7.0
      thresh= 5.336E-08 alpha_mix =  0.700 |ddv_scf|^2 =  8.122E-15

      iter #  10 total cpu time :     9.4 secs   av.it.:   7.6
      thresh= 9.012E-09 alpha_mix =  0.700 |ddv_scf|^2 =  4.788E-15

      iter #  11 total cpu time :     9.5 secs   av.it.:   7.2
      thresh= 6.920E-09 alpha_mix =  0.700 |ddv_scf|^2 =  4.984E-17

     End of self-consistent calculation

     Convergence has been achieved 


     Representation #  3 modes #   3  4

     Self-consistent Calculation

      iter #   1 total cpu time :     9.7 secs   av.it.:   5.3
      thresh= 1.000E-02 alpha_mix =  0.700 |ddv_scf|^2 =  3.145E-07

      iter #   2 total cpu time :    10.1 secs   av.it.:   9.4
      thresh= 5.608E-05 alpha_mix =  0.700 |ddv_scf|^2 =  1.876E-08

      iter #   3 total cpu time :    10.4 secs   av.it.:   9.1
      thresh= 1.370E-05 alpha_mix =  0.700 |ddv_scf|^2 =  1.036E-10

      iter #   4 total cpu time :    10.7 secs   av.it.:   9.2
      thresh= 1.018E-06 alpha_mix =  0.700 |ddv_scf|^2 =  6.186E-12

      iter #   5 total cpu time :    11.0 secs   av.it.:   9.1
      thresh= 2.487E-07 alpha_mix =  0.700 |ddv_scf|^2 =  1.054E-14

      iter #   6 total cpu time :    11.3 secs   av.it.:   9.5
      thresh= 1.027E-08 alpha_mix =  0.700 |ddv_scf|^2 =  1.874E-16

      iter #   7 total cpu time :    11.8 secs   av.it.:   9.7
      thresh= 1.369E-09 alpha_mix =  0.700 |ddv_scf|^2 =  1.081E-18

     End of self-consistent calculation

     Convergence has been achieved 


     Representation #  4 modes #   5  6

     Self-consistent Calculation

      iter #   1 total cpu time :    12.1 secs   av.it.:   5.3
      thresh= 1.000E-02 alpha_mix =  0.700 |ddv_scf|^2 =  3.144E-07

      iter #   2 total cpu time :    12.6 secs   av.it.:   9.6
      thresh= 5.607E-05 alpha_mix =  0.700 |ddv_scf|^2 =  1.874E-08

      iter #   3 total cpu time :    13.0 secs   av.it.:   9.3
      thresh= 1.369E-05 alpha_mix =  0.700 |ddv_scf|^2 =  1.036E-10

      iter #   4 total cpu time :    13.3 secs   av.it.:   9.2
      thresh= 1.018E-06 alpha_mix =  0.700 |ddv_scf|^2 =  6.178E-12

      iter #   5 total cpu time :    13.6 secs   av.it.:   9.1
      thresh= 2.486E-07 alpha_mix =  0.700 |ddv_scf|^2 =  1.071E-14

      iter #   6 total cpu time :    13.9 secs   av.it.:   9.6
      thresh= 1.035E-08 alpha_mix =  0.700 |ddv_scf|^2 =  1.874E-16

      iter #   7 total cpu time :    14.3 secs   av.it.:   9.7
      thresh= 1.369E-09 alpha_mix =  0.700 |ddv_scf|^2 =  1.108E-18

     End of self-consistent calculation

     Convergence has been achieved 

     Number of q in the star =    8
     List of q in the star:
          1  -0.250000000   0.250000000  -0.250000000
          2   0.250000000  -0.250000000  -0.250000000
          3   0.250000000  -0.250000000   0.250000000
          4   0.250000000   0.250000000   0.250000000
          5  -0.250000000  -0.250000000  -0.250000000
          6  -0.250000000  -0.250000000   0.250000000
          7  -0.250000000   0.250000000   0.250000000
          8   0.250000000   0.250000000  -0.250000000

     Diagonalizing the dynamical matrix

     q = (   -0.250000000   0.250000000  -0.250000000 ) 

 **************************************************************************
     freq (    1) =       2.608780 [THz] =      87.019546 [cm-1]
     freq (    2) =       2.608780 [THz] =      87.019546 [cm-1]
     freq (    3) =       7.236823 [THz] =     241.394444 [cm-1]
     freq (    4) =      15.536333 [THz] =     518.236278 [cm-1]
     freq (    5) =      15.852973 [THz] =     528.798250 [cm-1]
     freq (    6) =      15.852973 [THz] =     528.798250 [cm-1]
 **************************************************************************

     Mode symmetry, C_3v (3m)   point group:

     freq (  1 -  2) =         87.0  [cm-1]   --> E    L_3           
     freq (  3 -  3) =        241.4  [cm-1]   --> A_1  L_1           
     freq (  4 -  4) =        518.2  [cm-1]   --> A_1  L_1           
     freq (  5 -  6) =        528.8  [cm-1]   --> E    L_3           

     Calculation of q =    0.5000000  -0.5000000   0.5000000

     Parallelization info
     --------------------
     sticks:   dense  smooth     PW     G-vecs:    dense   smooth      PW
     Min          82      82     30                  985      985     234
     Max          85      85     31                  986      986     238
     Sum         337     337    121                 3943     3943     941


     Title: 
     Ph                                                                         


     bravais-lattice index     =            2
     lattice parameter (alat)  =      10.0000  a.u.
     unit-cell volume          =     250.0000 (a.u.)^3
     number of atoms/cell      =            2
     number of atomic types    =            1
     number of electrons       =         8.00
     number of Kohn-Sham states=            4
     kinetic-energy cutoff     =      24.0000  Ry
     charge density cutoff     =      96.0000  Ry
     Exchange-correlation      = PZ ( 1  1  0  0 0 0)

     celldm(1)=  10.000000  celldm(2)=   0.000000  celldm(3)=   0.000000
     celldm(4)=   0.000000  celldm(5)=   0.000000  celldm(6)=   0.000000

     crystal axes: (cart. coord. in units of alat)
               a(1) = (  -0.500000   0.000000   0.500000 )  
               a(2) = (   0.000000   0.500000   0.500000 )  
               a(3) = (  -0.500000   0.500000   0.000000 )  

     reciprocal axes: (cart. coord. in units 2 pi/alat)
               b(1) = ( -1.000000 -1.000000  1.000000 )  
               b(2) = (  1.000000  1.000000  1.000000 )  
               b(3) = ( -1.000000  1.000000 -1.000000 )  


     PseudoPot. # 1 for Si read from file:
     ../Si.pz-rrkj.UPF
     MD5 check sum: 884b380b739b48e9cd334294cddc9a8d
     Pseudo is Norm-conserving, Zval =  4.0
     Generated using "atomic" code by A. Dal Corso (espresso distribution)
     Using radial grid of 1141 points,  2 beta functions with: 
                l(1) =   0
                l(2) =   1

     atomic species   valence    mass     pseudopotential
        Si             4.00    28.08600     Si( 1.00)

     48 Sym. Ops., with inversion, found



   Cartesian axes

     site n.     atom                  positions (alat units)
         1           Si  tau(   1) = (   0.0000000   0.0000000   0.0000000  )
         2           Si  tau(   2) = (   0.2500000   0.2500000   0.2500000  )

     number of k points=    26
                       cart. coord. in units 2pi/alat
        k(    1) = (   0.0000000   0.0000000   0.0000000), wk =   0.0312500
        k(    2) = (   0.5000000  -0.5000000   0.5000000), wk =   0.0000000
        k(    3) = (  -0.2500000   0.2500000  -0.2500000), wk =   0.0625000
        k(    4) = (   0.2500000  -0.2500000   0.2500000), wk =   0.0000000
        k(    5) = (   0.5000000  -0.5000000   0.5000000), wk =   0.0312500
        k(    6) = (   1.0000000  -1.0000000   1.0000000), wk =   0.0000000
        k(    7) = (   0.0000000   0.5000000   0.0000000), wk =   0.1875000
        k(    8) = (   0.5000000   0.0000000   0.5000000), wk =   0.0000000
        k(    9) = (   0.7500000  -0.2500000   0.7500000), wk =   0.1875000
        k(   10) = (   1.2500000  -0.7500000   1.2500000), wk =   0.0000000
        k(   11) = (   0.5000000   0.0000000   0.5000000), wk =   0.1875000
        k(   12) = (   1.0000000  -0.5000000   1.0000000), wk =   0.0000000
        k(   13) = (   0.0000000  -1.0000000   0.0000000), wk =   0.0937500
        k(   14) = (   0.5000000  -1.5000000   0.5000000), wk =   0.0000000
        k(   15) = (  -0.5000000  -1.0000000   0.0000000), wk =   0.1875000
        k(   16) = (   0.0000000  -1.5000000   0.5000000), wk =   0.0000000
        k(   17) = (  -0.2500000  -0.2500000  -0.2500000), wk =   0.1875000
        k(   18) = (   0.2500000  -0.7500000   0.2500000), wk =   0.0000000
        k(   19) = (   0.5000000   0.5000000   0.5000000), wk =   0.0937500
        k(   20) = (   1.0000000   0.0000000   1.0000000), wk =   0.0000000
        k(   21) = (   0.7500000   0.2500000   0.7500000), wk =   0.1875000
        k(   22) = (   1.2500000  -0.2500000   1.2500000), wk =   0.0000000
        k(   23) = (  -0.7500000   0.2500000   0.7500000), wk =   0.3750000
        k(   24) = (  -0.2500000  -0.2500000   1.2500000), wk =   0.0000000
        k(   25) = (  -0.5000000   0.0000000   0.5000000), wk =   0.1875000
        k(   26) = (   0.0000000  -0.5000000   1.0000000), wk =   0.0000000

     Dense  grid:     3943 G-vectors     FFT dimensions: (  24,  24,  24)

     Estimated max dynamical RAM per process >       0.57 MB

     Estimated total dynamical RAM >       2.30 MB

     The potential is recalculated from file :
     ./tmp/_ph0/silicon.save/charge-density

     Starting wfcs are    8 atomic wfcs

     Band Structure Calculation
     Davidson diagonalization with overlap

     ethr =  1.25E-10,  avg # of iterations =  9.6

     total cpu time spent up to now is        0.7 secs

     End of band structure calculation

          k = 0.0000 0.0000 0.0000 (   531 PWs)   bands (ev):

    -5.6105   6.8997   6.8997   6.8997

          k = 0.5000-0.5000 0.5000 (   502 PWs)   bands (ev):

    -3.0679  -0.4753   5.6373   5.6373

          k =-0.2500 0.2500-0.2500 (   507 PWs)   bands (ev):

    -4.7538   2.8019   6.0914   6.0914

          k = 0.2500-0.2500 0.2500 (   507 PWs)   bands (ev):

    -4.7538   2.8019   6.0914   6.0914

          k = 0.5000-0.5000 0.5000 (   502 PWs)   bands (ev):

    -3.0679  -0.4753   5.6373   5.6373

          k = 1.0000-1.0000 1.0000 (   531 PWs)   bands (ev):

    -5.6105   6.8997   6.8997   6.8997

          k = 0.0000 0.5000 0.0000 (   504 PWs)   bands (ev):

    -4.4543   3.3802   4.8615   4.8615

          k = 0.5000 0.0000 0.5000 (   500 PWs)   bands (ev):

    -3.4132   1.2611   2.8176   5.4859

          k = 0.7500-0.2500 0.7500 (   497 PWs)   bands (ev):

    -2.6826   0.2859   3.0877   4.5343

          k = 1.2500-0.7500 1.2500 (   507 PWs)   bands (ev):

    -4.7538   2.8019   6.0914   6.0914

          k = 0.5000 0.0000 0.5000 (   500 PWs)   bands (ev):

    -3.4132   1.2611   2.8176   5.4859

          k = 1.0000-0.5000 1.0000 (   504 PWs)   bands (ev):

    -4.4543   3.3802   4.8615   4.8615

          k = 0.0000-1.0000 0.0000 (   468 PWs)   bands (ev):

    -1.1778  -1.1778   3.8397   3.8397

          k = 0.5000-1.5000 0.5000 (   502 PWs)   bands (ev):

    -3.0679  -0.4753   5.6373   5.6373

          k =-0.5000-1.0000 0.0000 (   488 PWs)   bands (ev):

    -0.9720  -0.9720   2.6835   2.6835

          k = 0.0000-1.5000 0.5000 (   500 PWs)   bands (ev):

    -3.4132   1.2611   2.8176   5.4859

          k =-0.2500-0.2500-0.2500 (   507 PWs)   bands (ev):

    -4.7538   2.8019   6.0914   6.0914

          k = 0.2500-0.7500 0.2500 (   497 PWs)   bands (ev):

    -2.6826   0.2859   3.0877   4.5343

          k = 0.5000 0.5000 0.5000 (   502 PWs)   bands (ev):

    -3.0679  -0.4753   5.6373   5.6373

          k = 1.0000 0.0000 1.0000 (   468 PWs)   bands (ev):

    -1.1778  -1.1778   3.8397   3.8397

          k = 0.7500 0.2500 0.7500 (   497 PWs)   bands (ev):

    -2.6826   0.2859   3.0877   4.5343

          k = 1.2500-0.2500 1.2500 (   497 PWs)   bands (ev):

    -2.6826   0.2859   3.0877   4.5343

          k =-0.7500 0.2500 0.7500 (   497 PWs)   bands (ev):

    -2.6826   0.2859   3.0877   4.5343

          k =-0.2500-0.2500 1.2500 (   497 PWs)   bands (ev):

    -2.6826   0.2859   3.0877   4.5343

          k =-0.5000 0.0000 0.5000 (   500 PWs)   bands (ev):

    -3.4132   1.2611   2.8176   5.4859

          k = 0.0000-0.5000 1.0000 (   488 PWs)   bands (ev):

    -0.9720  -0.9720   2.6835   2.6835

     highest occupied level (ev):     6.8997

     Writing output data file silicon.save/

     Ph                                                                         

     bravais-lattice index     =            2
     lattice parameter (alat)  =      10.0000  a.u.
     unit-cell volume          =     250.0000 (a.u.)^3
     number of atoms/cell      =            2
     number of atomic types    =            1
     kinetic-energy cut-off    =      24.0000  Ry
     charge density cut-off    =      96.0000  Ry
     convergence threshold     =      1.0E-16
     beta                      =       0.7000
     number of iterations used =            4
     Exchange-correlation      = PZ ( 1  1  0  0 0 0)


     celldm(1)=   10.00000  celldm(2)=    0.00000  celldm(3)=    0.00000
     celldm(4)=    0.00000  celldm(5)=    0.00000  celldm(6)=    0.00000

     crystal axes: (cart. coord. in units of alat)
               a(1) = ( -0.5000  0.0000  0.5000 )  
               a(2) = (  0.0000  0.5000  0.5000 )  
               a(3) = ( -0.5000  0.5000  0.0000 )  

     reciprocal axes: (cart. coord. in units 2 pi/alat)
               b(1) = ( -1.0000 -1.0000  1.0000 )  
               b(2) = (  1.0000  1.0000  1.0000 )  
               b(3) = ( -1.0000  1.0000 -1.0000 )  


     Atoms inside the unit cell: 

     Cartesian axes

     site n.  atom      mass           positions (alat units)
        1     Si  28.0860   tau(    1) = (    0.00000    0.00000    0.00000  )
        2     Si  28.0860   tau(    2) = (    0.25000    0.25000    0.25000  )

     Computing dynamical matrix for 
                    q = (   0.5000000  -0.5000000   0.5000000 )

     13 Sym.Ops. (with q -> -q+G )


     G cutoff =  243.1708  (    986 G-vectors)     FFT grid: ( 24, 24, 24)
     number of k points=    26

     PseudoPot. # 1 for Si read from file:
     ../Si.pz-rrkj.UPF
     MD5 check sum: 884b380b739b48e9cd334294cddc9a8d
     Pseudo is Norm-conserving, Zval =  4.0
     Generated using "atomic" code by A. Dal Corso (espresso distribution)
     Using radial grid of 1141 points,  2 beta functions with: 
                l(1) =   0
                l(2) =   1


     Atomic displacements:
     There are   4 irreducible representations

     Representation     1      1 modes -  To be done

     Representation     2      1 modes -  To be done

     Representation     3      2 modes -  To be done

     Representation     4      2 modes -  To be done



     Alpha used in Ewald sum =   1.0000
     PHONON       :     12.91s CPU     14.55s WALL



     Representation #  1 mode #   1

     Self-consistent Calculation

      iter #   1 total cpu time :    14.7 secs   av.it.:   5.1
      thresh= 1.000E-02 alpha_mix =  0.700 |ddv_scf|^2 =  1.429E-05

      iter #   2 total cpu time :    14.8 secs   av.it.:   7.7
      thresh= 3.780E-04 alpha_mix =  0.700 |ddv_scf|^2 =  1.098E-05

      iter #   3 total cpu time :    14.9 secs   av.it.:   7.2
      thresh= 3.313E-04 alpha_mix =  0.700 |ddv_scf|^2 =  9.550E-10

      iter #   4 total cpu time :    15.0 secs   av.it.:   7.4
      thresh= 3.090E-06 alpha_mix =  0.700 |ddv_scf|^2 =  2.070E-11

      iter #   5 total cpu time :    15.1 secs   av.it.:   7.2
      thresh= 4.549E-07 alpha_mix =  0.700 |ddv_scf|^2 =  1.009E-13

      iter #   6 total cpu time :    15.2 secs   av.it.:   7.3
      thresh= 3.177E-08 alpha_mix =  0.700 |ddv_scf|^2 =  2.275E-15

      iter #   7 total cpu time :    15.3 secs   av.it.:   7.4
      thresh= 4.770E-09 alpha_mix =  0.700 |ddv_scf|^2 =  5.093E-18

     End of self-consistent calculation

     Convergence has been achieved 


     Representation #  2 mode #   2

     Self-consistent Calculation

      iter #   1 total cpu time :    15.4 secs   av.it.:   5.9
      thresh= 1.000E-02 alpha_mix =  0.700 |ddv_scf|^2 =  2.578E-04

      iter #   2 total cpu time :    15.5 secs   av.it.:   8.2
      thresh= 1.606E-03 alpha_mix =  0.700 |ddv_scf|^2 =  8.780E-04

      iter #   3 total cpu time :    15.7 secs   av.it.:   7.2
      thresh= 2.963E-03 alpha_mix =  0.700 |ddv_scf|^2 =  1.333E-08

      iter #   4 total cpu time :    15.8 secs   av.it.:   8.3
      thresh= 1.155E-05 alpha_mix =  0.700 |ddv_scf|^2 =  4.548E-10

      iter #   5 total cpu time :    15.9 secs   av.it.:   8.2
      thresh= 2.133E-06 alpha_mix =  0.700 |ddv_scf|^2 =  4.821E-11

      iter #   6 total cpu time :    16.0 secs   av.it.:   7.6
      thresh= 6.944E-07 alpha_mix =  0.700 |ddv_scf|^2 =  2.447E-14

      iter #   7 total cpu time :    16.1 secs   av.it.:   7.5
      thresh= 1.564E-08 alpha_mix =  0.700 |ddv_scf|^2 =  3.103E-15

      iter #   8 total cpu time :    16.2 secs   av.it.:   7.7
      thresh= 5.571E-09 alpha_mix =  0.700 |ddv_scf|^2 =  4.323E-16

      iter #   9 total cpu time :    16.3 secs   av.it.:   7.5
      thresh= 2.079E-09 alpha_mix =  0.700 |ddv_scf|^2 =  1.234E-19

     End of self-consistent calculation

     Convergence has been achieved 


     Representation #  3 modes #   3  4

     Self-consistent Calculation

      iter #   1 total cpu time :    16.4 secs   av.it.:   5.1
      thresh= 1.000E-02 alpha_mix =  0.700 |ddv_scf|^2 =  7.207E-07

      iter #   2 total cpu time :    16.6 secs   av.it.:   8.9
      thresh= 8.489E-05 alpha_mix =  0.700 |ddv_scf|^2 =  6.631E-08

      iter #   3 total cpu time :    16.8 secs   av.it.:   8.8
      thresh= 2.575E-05 alpha_mix =  0.700 |ddv_scf|^2 =  9.500E-11

      iter #   4 total cpu time :    17.0 secs   av.it.:   8.3
      thresh= 9.747E-07 alpha_mix =  0.700 |ddv_scf|^2 =  2.633E-13

      iter #   5 total cpu time :    17.2 secs   av.it.:   8.7
      thresh= 5.131E-08 alpha_mix =  0.700 |ddv_scf|^2 =  1.051E-15

      iter #   6 total cpu time :    17.4 secs   av.it.:   8.9
      thresh= 3.241E-09 alpha_mix =  0.700 |ddv_scf|^2 =  2.243E-17

     End of self-consistent calculation

     Convergence has been achieved 


     Representation #  4 modes #   5  6

     Self-consistent Calculation

      iter #   1 total cpu time :    17.5 secs   av.it.:   5.0
      thresh= 1.000E-02 alpha_mix =  0.700 |ddv_scf|^2 =  8.106E-08

      iter #   2 total cpu time :    17.7 secs   av.it.:   9.1
      thresh= 2.847E-05 alpha_mix =  0.700 |ddv_scf|^2 =  1.815E-09

      iter #   3 total cpu time :    17.9 secs   av.it.:   8.9
      thresh= 4.260E-06 alpha_mix =  0.700 |ddv_scf|^2 =  6.593E-11

      iter #   4 total cpu time :    18.1 secs   av.it.:   8.9
      thresh= 8.120E-07 alpha_mix =  0.700 |ddv_scf|^2 =  8.640E-14

      iter #   5 total cpu time :    18.3 secs   av.it.:   9.2
      thresh= 2.939E-08 alpha_mix =  0.700 |ddv_scf|^2 =  1.211E-15

      iter #   6 total cpu time :    18.5 secs   av.it.:   9.4
      thresh= 3.481E-09 alpha_mix =  0.700 |ddv_scf|^2 =  6.632E-18

     End of self-consistent calculation

     Convergence has been achieved 

     Number of q in the star =    4
     List of q in the star:
          1   0.500000000  -0.500000000   0.500000000
          2   0.500000000   0.500000000   0.500000000
          3  -0.500000000   0.500000000   0.500000000
          4   0.500000000   0.500000000  -0.500000000

     Diagonalizing the dynamical matrix

     q = (    0.500000000  -0.500000000   0.500000000 ) 

 **************************************************************************
     freq (    1) =       2.559574 [THz] =      85.378186 [cm-1]
     freq (    2) =       2.559574 [THz] =      85.378186 [cm-1]
     freq (    3) =      11.670562 [THz] =     389.288045 [cm-1]
     freq (    4) =      13.163498 [THz] =     439.087038 [cm-1]
     freq (    5) =      15.597177 [THz] =     520.265816 [cm-1]
     freq (    6) =      15.597177 [THz] =     520.265816 [cm-1]
 **************************************************************************

     Calculation of q =    0.0000000   0.5000000   0.0000000

     Parallelization info
     --------------------
     sticks:   dense  smooth     PW     G-vecs:    dense   smooth      PW
     Min          82      82     30                  985      985     216
     Max          85      85     31                  986      986     218
     Sum         337     337    121                 3943     3943     869


     Title: 
     Ph                                                                         


     bravais-lattice index     =            2
     lattice parameter (alat)  =      10.0000  a.u.
     unit-cell volume          =     250.0000 (a.u.)^3
     number of atoms/cell      =            2
     number of atomic types    =            1
     number of electrons       =         8.00
     number of Kohn-Sham states=            4
     kinetic-energy cutoff     =      24.0000  Ry
     charge density cutoff     =      96.0000  Ry
     Exchange-correlation      = PZ ( 1  1  0  0 0 0)

     celldm(1)=  10.000000  celldm(2)=   0.000000  celldm(3)=   0.000000
     celldm(4)=   0.000000  celldm(5)=   0.000000  celldm(6)=   0.000000

     crystal axes: (cart. coord. in units of alat)
               a(1) = (  -0.500000   0.000000   0.500000 )  
               a(2) = (   0.000000   0.500000   0.500000 )  
               a(3) = (  -0.500000   0.500000   0.000000 )  

     reciprocal axes: (cart. coord. in units 2 pi/alat)
               b(1) = ( -1.000000 -1.000000  1.000000 )  
               b(2) = (  1.000000  1.000000  1.000000 )  
               b(3) = ( -1.000000  1.000000 -1.000000 )  


     PseudoPot. # 1 for Si read from file:
     ../Si.pz-rrkj.UPF
     MD5 check sum: 884b380b739b48e9cd334294cddc9a8d
     Pseudo is Norm-conserving, Zval =  4.0
     Generated using "atomic" code by A. Dal Corso (espresso distribution)
     Using radial grid of 1141 points,  2 beta functions with: 
                l(1) =   0
                l(2) =   1

     atomic species   valence    mass     pseudopotential
        Si             4.00    28.08600     Si( 1.00)

     48 Sym. Ops., with inversion, found



   Cartesian axes

     site n.     atom                  positions (alat units)
         1           Si  tau(   1) = (   0.0000000   0.0000000   0.0000000  )
         2           Si  tau(   2) = (   0.2500000   0.2500000   0.2500000  )

     number of k points=    36
                       cart. coord. in units 2pi/alat
        k(    1) = (   0.0000000   0.0000000   0.0000000), wk =   0.0312500
        k(    2) = (   0.0000000   0.5000000   0.0000000), wk =   0.0000000
        k(    3) = (  -0.2500000   0.2500000  -0.2500000), wk =   0.1250000
        k(    4) = (  -0.2500000   0.7500000  -0.2500000), wk =   0.0000000
        k(    5) = (   0.5000000  -0.5000000   0.5000000), wk =   0.1250000
        k(    6) = (   0.5000000   0.0000000   0.5000000), wk =   0.0000000
        k(    7) = (   0.0000000   0.5000000   0.0000000), wk =   0.0312500
        k(    8) = (   0.0000000   1.0000000   0.0000000), wk =   0.0000000
        k(    9) = (   0.7500000  -0.2500000   0.7500000), wk =   0.1250000
        k(   10) = (   0.7500000   0.2500000   0.7500000), wk =   0.0000000
        k(   11) = (   0.5000000   0.0000000   0.5000000), wk =   0.1250000
        k(   12) = (   0.5000000   0.5000000   0.5000000), wk =   0.0000000
        k(   13) = (   0.0000000  -1.0000000   0.0000000), wk =   0.0312500
        k(   14) = (   0.0000000  -0.5000000   0.0000000), wk =   0.0000000
        k(   15) = (  -0.5000000  -1.0000000   0.0000000), wk =   0.1250000
        k(   16) = (  -0.5000000  -0.5000000   0.0000000), wk =   0.0000000
        k(   17) = (   0.2500000  -0.2500000   0.2500000), wk =   0.1250000
        k(   18) = (   0.2500000   0.2500000   0.2500000), wk =   0.0000000
        k(   19) = (   0.0000000  -0.5000000   0.0000000), wk =   0.0312500
        k(   20) = (   0.0000000   0.0000000   0.0000000), wk =   0.0000000
        k(   21) = (   0.5000000   0.0000000   0.0000000), wk =   0.1250000
        k(   22) = (   0.5000000   0.5000000   0.0000000), wk =   0.0000000
        k(   23) = (  -0.7500000   0.2500000  -0.7500000), wk =   0.1250000
        k(   24) = (  -0.7500000   0.7500000  -0.7500000), wk =   0.0000000
        k(   25) = (  -0.2500000   0.7500000  -0.7500000), wk =   0.2500000
        k(   26) = (  -0.2500000   1.2500000  -0.7500000), wk =   0.0000000
        k(   27) = (  -0.2500000  -0.7500000  -0.7500000), wk =   0.2500000
        k(   28) = (  -0.2500000  -0.2500000  -0.7500000), wk =   0.0000000
        k(   29) = (   0.0000000   0.5000000  -0.5000000), wk =   0.1250000
        k(   30) = (   0.0000000   1.0000000  -0.5000000), wk =   0.0000000
        k(   31) = (   0.0000000  -0.5000000  -0.5000000), wk =   0.1250000
        k(   32) = (   0.0000000   0.0000000  -0.5000000), wk =   0.0000000
        k(   33) = (  -1.0000000   0.0000000   0.0000000), wk =   0.0625000
        k(   34) = (  -1.0000000   0.5000000   0.0000000), wk =   0.0000000
        k(   35) = (  -1.0000000  -0.5000000   0.0000000), wk =   0.0625000
        k(   36) = (  -1.0000000   0.0000000   0.0000000), wk =   0.0000000

     Dense  grid:     3943 G-vectors     FFT dimensions: (  24,  24,  24)

     Estimated max dynamical RAM per process >       0.57 MB

     Estimated total dynamical RAM >       2.29 MB

     The potential is recalculated from file :
     ./tmp/_ph0/silicon.save/charge-density

     Starting wfcs are    8 atomic wfcs

     Band Structure Calculation
     Davidson diagonalization with overlap

     ethr =  1.25E-10,  avg # of iterations =  9.7

     total cpu time spent up to now is        1.1 secs

     End of band structure calculation

          k = 0.0000 0.0000 0.0000 (   531 PWs)   bands (ev):

    -5.6105   6.8997   6.8997   6.8997

          k = 0.0000 0.5000 0.0000 (   504 PWs)   bands (ev):

    -4.4543   3.3802   4.8615   4.8615

          k =-0.2500 0.2500-0.2500 (   507 PWs)   bands (ev):

    -4.7538   2.8019   6.0914   6.0914

          k =-0.2500 0.7500-0.2500 (   497 PWs)   bands (ev):

    -2.6826   0.2859   3.0877   4.5343

          k = 0.5000-0.5000 0.5000 (   502 PWs)   bands (ev):

    -3.0679  -0.4753   5.6373   5.6373

          k = 0.5000 0.0000 0.5000 (   500 PWs)   bands (ev):

    -3.4132   1.2611   2.8176   5.4859

          k = 0.0000 0.5000 0.0000 (   504 PWs)   bands (ev):

    -4.4543   3.3802   4.8615   4.8615

          k = 0.0000 1.0000 0.0000 (   468 PWs)   bands (ev):

    -1.1778  -1.1778   3.8397   3.8397

          k = 0.7500-0.2500 0.7500 (   497 PWs)   bands (ev):

    -2.6826   0.2859   3.0877   4.5343

          k = 0.7500 0.2500 0.7500 (   497 PWs)   bands (ev):

    -2.6826   0.2859   3.0877   4.5343

          k = 0.5000 0.0000 0.5000 (   500 PWs)   bands (ev):

    -3.4132   1.2611   2.8176   5.4859

          k = 0.5000 0.5000 0.5000 (   502 PWs)   bands (ev):

    -3.0679  -0.4753   5.6373   5.6373

          k = 0.0000-1.0000 0.0000 (   468 PWs)   bands (ev):

    -1.1778  -1.1778   3.8397   3.8397

          k = 0.0000-0.5000 0.0000 (   504 PWs)   bands (ev):

    -4.4543   3.3802   4.8615   4.8615

          k =-0.5000-1.0000 0.0000 (   488 PWs)   bands (ev):

    -0.9720  -0.9720   2.6835   2.6835

          k =-0.5000-0.5000 0.0000 (   500 PWs)   bands (ev):

    -3.4132   1.2611   2.8176   5.4859

          k = 0.2500-0.2500 0.2500 (   507 PWs)   bands (ev):

    -4.7538   2.8019   6.0914   6.0914

          k = 0.2500 0.2500 0.2500 (   507 PWs)   bands (ev):

    -4.7538   2.8019   6.0914   6.0914

          k = 0.0000-0.5000 0.0000 (   504 PWs)   bands (ev):

    -4.4543   3.3802   4.8615   4.8615

          k = 0.0000 0.0000 0.0000 (   531 PWs)   bands (ev):

    -5.6105   6.8997   6.8997   6.8997

          k = 0.5000 0.0000 0.0000 (   504 PWs)   bands (ev):

    -4.4543   3.3802   4.8615   4.8615

          k = 0.5000 0.5000 0.0000 (   500 PWs)   bands (ev):

    -3.4132   1.2611   2.8176   5.4859

          k =-0.7500 0.2500-0.7500 (   497 PWs)   bands (ev):

    -2.6826   0.2859   3.0877   4.5343

          k =-0.7500 0.7500-0.7500 (   507 PWs)   bands (ev):

    -4.7538   2.8019   6.0914   6.0914

          k =-0.2500 0.7500-0.7500 (   497 PWs)   bands (ev):

    -2.6826   0.2859   3.0877   4.5343

          k =-0.2500 1.2500-0.7500 (   497 PWs)   bands (ev):

    -2.6826   0.2859   3.0877   4.5343

          k =-0.2500-0.7500-0.7500 (   497 PWs)   bands (ev):

    -2.6826   0.2859   3.0877   4.5343

          k =-0.2500-0.2500-0.7500 (   497 PWs)   bands (ev):

    -2.6826   0.2859   3.0877   4.5343

          k = 0.0000 0.5000-0.5000 (   500 PWs)   bands (ev):

    -3.4132   1.2611   2.8176   5.4859

          k = 0.0000 1.0000-0.5000 (   488 PWs)   bands (ev):

    -0.9720  -0.9720   2.6835   2.6835

          k = 0.0000-0.5000-0.5000 (   500 PWs)   bands (ev):

    -3.4132   1.2611   2.8176   5.4859

          k = 0.0000 0.0000-0.5000 (   504 PWs)   bands (ev):

    -4.4543   3.3802   4.8615   4.8615

          k =-1.0000 0.0000 0.0000 (   468 PWs)   bands (ev):

    -1.1778  -1.1778   3.8397   3.8397

          k =-1.0000 0.5000 0.0000 (   488 PWs)   bands (ev):

    -0.9720  -0.9720   2.6835   2.6835

          k =-1.0000-0.5000 0.0000 (   488 PWs)   bands (ev):

    -0.9720  -0.9720   2.6835   2.6835

          k =-1.0000 0.0000 0.0000 (   468 PWs)   bands (ev):

    -1.1778  -1.1778   3.8397   3.8397

     highest occupied level (ev):     6.8997

     Writing output data file silicon.save/

     Ph                                                                         

     bravais-lattice index     =            2
     lattice parameter (alat)  =      10.0000  a.u.
     unit-cell volume          =     250.0000 (a.u.)^3
     number of atoms/cell      =            2
     number of atomic types    =            1
     kinetic-energy cut-off    =      24.0000  Ry
     charge density cut-off    =      96.0000  Ry
     convergence threshold     =      1.0E-16
     beta                      =       0.7000
     number of iterations used =            4
     Exchange-correlation      = PZ ( 1  1  0  0 0 0)


     celldm(1)=   10.00000  celldm(2)=    0.00000  celldm(3)=    0.00000
     celldm(4)=    0.00000  celldm(5)=    0.00000  celldm(6)=    0.00000

     crystal axes: (cart. coord. in units of alat)
               a(1) = ( -0.5000  0.0000  0.5000 )  
               a(2) = (  0.0000  0.5000  0.5000 )  
               a(3) = ( -0.5000  0.5000  0.0000 )  

     reciprocal axes: (cart. coord. in units 2 pi/alat)
               b(1) = ( -1.0000 -1.0000  1.0000 )  
               b(2) = (  1.0000  1.0000  1.0000 )  
               b(3) = ( -1.0000  1.0000 -1.0000 )  


     Atoms inside the unit cell: 

     Cartesian axes

     site n.  atom      mass           positions (alat units)
        1     Si  28.0860   tau(    1) = (    0.00000    0.00000    0.00000  )
        2     Si  28.0860   tau(    2) = (    0.25000    0.25000    0.25000  )

     Computing dynamical matrix for 
                    q = (   0.0000000   0.5000000   0.0000000 )

      8 Sym.Ops. (no q -> -q+G )


     G cutoff =  243.1708  (    986 G-vectors)     FFT grid: ( 24, 24, 24)
     number of k points=    36

     PseudoPot. # 1 for Si read from file:
     ../Si.pz-rrkj.UPF
     MD5 check sum: 884b380b739b48e9cd334294cddc9a8d
     Pseudo is Norm-conserving, Zval =  4.0
     Generated using "atomic" code by A. Dal Corso (espresso distribution)
     Using radial grid of 1141 points,  2 beta functions with: 
                l(1) =   0
                l(2) =   1

     Mode symmetry, C_4v (4mm)  point group:


     Atomic displacements:
     There are   4 irreducible representations

     Representation     1      1 modes -A_1  G_1 D_1  To be done

     Representation     2      1 modes -B_2  G_4 D_2'  To be done

     Representation     3      2 modes -E    G_5 D_5  To be done

     Representation     4      2 modes -E    G_5 D_5  To be done



     Alpha used in Ewald sum =   1.0000
     PHONON       :     16.69s CPU     18.90s WALL



     Representation #  1 mode #   1

     Self-consistent Calculation

      iter #   1 total cpu time :    19.0 secs   av.it.:   5.8
      thresh= 1.000E-02 alpha_mix =  0.700 |ddv_scf|^2 =  1.817E-03

      iter #   2 total cpu time :    19.1 secs   av.it.:   7.6
      thresh= 4.263E-03 alpha_mix =  0.700 |ddv_scf|^2 =  2.156E-02

      iter #   3 total cpu time :    19.2 secs   av.it.:   6.4
      thresh= 1.000E-02 alpha_mix =  0.700 |ddv_scf|^2 =  1.918E-08

      iter #   4 total cpu time :    19.3 secs   av.it.:   8.2
      thresh= 1.385E-05 alpha_mix =  0.700 |ddv_scf|^2 =  1.146E-09

      iter #   5 total cpu time :    19.5 secs   av.it.:   7.8
      thresh= 3.385E-06 alpha_mix =  0.700 |ddv_scf|^2 =  2.773E-11

      iter #   6 total cpu time :    19.6 secs   av.it.:   7.3
      thresh= 5.266E-07 alpha_mix =  0.700 |ddv_scf|^2 =  1.101E-12

      iter #   7 total cpu time :    19.7 secs   av.it.:   6.5
      thresh= 1.049E-07 alpha_mix =  0.700 |ddv_scf|^2 =  3.877E-15

      iter #   8 total cpu time :    19.8 secs   av.it.:   7.4
      thresh= 6.226E-09 alpha_mix =  0.700 |ddv_scf|^2 =  3.272E-17

     End of self-consistent calculation

     Convergence has been achieved 


     Representation #  2 mode #   2

     Self-consistent Calculation

      iter #   1 total cpu time :    19.9 secs   av.it.:   5.3
      thresh= 1.000E-02 alpha_mix =  0.700 |ddv_scf|^2 =  3.341E-06

      iter #   2 total cpu time :    20.0 secs   av.it.:   8.2
      thresh= 1.828E-04 alpha_mix =  0.700 |ddv_scf|^2 =  6.840E-07

      iter #   3 total cpu time :    20.2 secs   av.it.:   8.1
      thresh= 8.270E-05 alpha_mix =  0.700 |ddv_scf|^2 =  2.267E-09

      iter #   4 total cpu time :    20.3 secs   av.it.:   8.2
      thresh= 4.761E-06 alpha_mix =  0.700 |ddv_scf|^2 =  8.171E-11

      iter #   5 total cpu time :    20.4 secs   av.it.:   7.7
      thresh= 9.040E-07 alpha_mix =  0.700 |ddv_scf|^2 =  1.087E-12

      iter #   6 total cpu time :    20.5 secs   av.it.:   7.6
      thresh= 1.042E-07 alpha_mix =  0.700 |ddv_scf|^2 =  6.284E-16

      iter #   7 total cpu time :    20.6 secs   av.it.:   8.4
      thresh= 2.507E-09 alpha_mix =  0.700 |ddv_scf|^2 =  2.122E-17

     End of self-consistent calculation

     Convergence has been achieved 


     Representation #  3 modes #   3  4

     Self-consistent Calculation

      iter #   1 total cpu time :    20.9 secs   av.it.:   5.5
      thresh= 1.000E-02 alpha_mix =  0.700 |ddv_scf|^2 =  7.963E-07

      iter #   2 total cpu time :    21.1 secs   av.it.:   9.2
      thresh= 8.924E-05 alpha_mix =  0.700 |ddv_scf|^2 =  1.356E-07

      iter #   3 total cpu time :    21.4 secs   av.it.:   8.9
      thresh= 3.682E-05 alpha_mix =  0.700 |ddv_scf|^2 =  1.261E-10

      iter #   4 total cpu time :    21.7 secs   av.it.:   8.7
      thresh= 1.123E-06 alpha_mix =  0.700 |ddv_scf|^2 =  5.845E-12

      iter #   5 total cpu time :    22.0 secs   av.it.:   8.6
      thresh= 2.418E-07 alpha_mix =  0.700 |ddv_scf|^2 =  5.870E-15

      iter #   6 total cpu time :    22.2 secs   av.it.:   9.6
      thresh= 7.662E-09 alpha_mix =  0.700 |ddv_scf|^2 =  1.974E-17

     End of self-consistent calculation

     Convergence has been achieved 


     Representation #  4 modes #   5  6

     Self-consistent Calculation

      iter #   1 total cpu time :    22.5 secs   av.it.:   5.4
      thresh= 1.000E-02 alpha_mix =  0.700 |ddv_scf|^2 =  5.247E-07

      iter #   2 total cpu time :    22.9 secs   av.it.:   9.2
      thresh= 7.244E-05 alpha_mix =  0.700 |ddv_scf|^2 =  8.718E-08

      iter #   3 total cpu time :    23.2 secs   av.it.:   8.9
      thresh= 2.953E-05 alpha_mix =  0.700 |ddv_scf|^2 =  1.326E-10

      iter #   4 total cpu time :    23.5 secs   av.it.:   8.8
      thresh= 1.151E-06 alpha_mix =  0.700 |ddv_scf|^2 =  6.605E-12

      iter #   5 total cpu time :    23.8 secs   av.it.:   8.5
      thresh= 2.570E-07 alpha_mix =  0.700 |ddv_scf|^2 =  6.773E-15

      iter #   6 total cpu time :    24.0 secs   av.it.:   9.6
      thresh= 8.230E-09 alpha_mix =  0.700 |ddv_scf|^2 =  2.335E-17

     End of self-consistent calculation

     Convergence has been achieved 

     Number of q in the star =    6
     List of q in the star:
          1   0.000000000   0.500000000   0.000000000
          2   0.000000000  -0.500000000   0.000000000
          3   0.500000000   0.000000000   0.000000000
          4   0.000000000   0.000000000   0.500000000
          5   0.000000000   0.000000000  -0.500000000
          6  -0.500000000   0.000000000   0.000000000

     Diagonalizing the dynamical matrix

     q = (    0.000000000   0.500000000   0.000000000 ) 

 **************************************************************************
     freq (    1) =       3.566274 [THz] =     118.958109 [cm-1]
     freq (    2) =       3.566274 [THz] =     118.958109 [cm-1]
     freq (    3) =       7.610854 [THz] =     253.870762 [cm-1]
     freq (    4) =      15.238263 [THz] =     508.293745 [cm-1]
     freq (    5) =      15.238263 [THz] =     508.293745 [cm-1]
     freq (    6) =      15.745032 [THz] =     525.197744 [cm-1]
 **************************************************************************

     Mode symmetry, C_4v (4mm)  point group:

     freq (  1 -  2) =        119.0  [cm-1]   --> E    G_5 D_5       
     freq (  3 -  3) =        253.9  [cm-1]   --> A_1  G_1 D_1       
     freq (  4 -  5) =        508.3  [cm-1]   --> E    G_5 D_5       
     freq (  6 -  6) =        525.2  [cm-1]   --> B_2  G_4 D_2'      

     Calculation of q =    0.7500000  -0.2500000   0.7500000

     Parallelization info
     --------------------
     sticks:   dense  smooth     PW     G-vecs:    dense   smooth      PW
     Min          82      82     34                  985      985     259
     Max          85      85     35                  986      986     260
     Sum         337     337    139                 3943     3943    1037


     Title: 
     Ph                                                                         


     bravais-lattice index     =            2
     lattice parameter (alat)  =      10.0000  a.u.
     unit-cell volume          =     250.0000 (a.u.)^3
     number of atoms/cell      =            2
     number of atomic types    =            1
     number of electrons       =         8.00
     number of Kohn-Sham states=            4
     kinetic-energy cutoff     =      24.0000  Ry
     charge density cutoff     =      96.0000  Ry
     Exchange-correlation      = PZ ( 1  1  0  0 0 0)

     celldm(1)=  10.000000  celldm(2)=   0.000000  celldm(3)=   0.000000
     celldm(4)=   0.000000  celldm(5)=   0.000000  celldm(6)=   0.000000

     crystal axes: (cart. coord. in units of alat)
               a(1) = (  -0.500000   0.000000   0.500000 )  
               a(2) = (   0.000000   0.500000   0.500000 )  
               a(3) = (  -0.500000   0.500000   0.000000 )  

     reciprocal axes: (cart. coord. in units 2 pi/alat)
               b(1) = ( -1.000000 -1.000000  1.000000 )  
               b(2) = (  1.000000  1.000000  1.000000 )  
               b(3) = ( -1.000000  1.000000 -1.000000 )  


     PseudoPot. # 1 for Si read from file:
     ../Si.pz-rrkj.UPF
     MD5 check sum: 884b380b739b48e9cd334294cddc9a8d
     Pseudo is Norm-conserving, Zval =  4.0
     Generated using "atomic" code by A. Dal Corso (espresso distribution)
     Using radial grid of 1141 points,  2 beta functions with: 
                l(1) =   0
                l(2) =   1

     atomic species   valence    mass     pseudopotential
        Si             4.00    28.08600     Si( 1.00)

     48 Sym. Ops., with inversion, found



   Cartesian axes

     site n.     atom                  positions (alat units)
         1           Si  tau(   1) = (   0.0000000   0.0000000   0.0000000  )
         2           Si  tau(   2) = (   0.2500000   0.2500000   0.2500000  )

     number of k points=    80
                       cart. coord. in units 2pi/alat
        k(    1) = (   0.0000000   0.0000000   0.0000000), wk =   0.0312500
        k(    2) = (   0.7500000  -0.2500000   0.7500000), wk =   0.0000000
        k(    3) = (  -0.2500000   0.2500000  -0.2500000), wk =   0.0312500
        k(    4) = (   0.5000000   0.0000000   0.5000000), wk =   0.0000000
        k(    5) = (   0.5000000  -0.5000000   0.5000000), wk =   0.0312500
        k(    6) = (   1.2500000  -0.7500000   1.2500000), wk =   0.0000000
        k(    7) = (   0.0000000   0.5000000   0.0000000), wk =   0.0312500
        k(    8) = (   0.7500000   0.2500000   0.7500000), wk =   0.0000000
        k(    9) = (   0.7500000  -0.2500000   0.7500000), wk =   0.0312500
        k(   10) = (   1.5000000  -0.5000000   1.5000000), wk =   0.0000000
        k(   11) = (   0.5000000   0.0000000   0.5000000), wk =   0.0312500
        k(   12) = (   1.2500000  -0.2500000   1.2500000), wk =   0.0000000
        k(   13) = (   0.0000000  -1.0000000   0.0000000), wk =   0.0312500
        k(   14) = (   0.7500000  -1.2500000   0.7500000), wk =   0.0000000
        k(   15) = (  -0.5000000  -1.0000000   0.0000000), wk =   0.0625000
        k(   16) = (   0.2500000  -1.2500000   0.7500000), wk =   0.0000000
        k(   17) = (  -0.2500000   0.2500000   0.2500000), wk =   0.0625000
        k(   18) = (   0.5000000   0.0000000   1.0000000), wk =   0.0000000
        k(   19) = (   0.2500000   0.2500000   0.2500000), wk =   0.0312500
        k(   20) = (   1.0000000   0.0000000   1.0000000), wk =   0.0000000
        k(   21) = (   0.2500000  -0.2500000   0.2500000), wk =   0.0312500
        k(   22) = (   1.0000000  -0.5000000   1.0000000), wk =   0.0000000
        k(   23) = (  -0.2500000  -0.2500000  -0.2500000), wk =   0.0312500
        k(   24) = (   0.5000000  -0.5000000   0.5000000), wk =   0.0000000
        k(   25) = (   0.2500000  -0.2500000  -0.2500000), wk =   0.0625000
        k(   26) = (   1.0000000  -0.5000000   0.5000000), wk =   0.0000000
        k(   27) = (   0.5000000  -0.5000000  -0.5000000), wk =   0.0625000
        k(   28) = (   1.2500000  -0.7500000   0.2500000), wk =   0.0000000
        k(   29) = (  -0.5000000  -0.5000000  -0.5000000), wk =   0.0312500
        k(   30) = (   0.2500000  -0.7500000   0.2500000), wk =   0.0000000
        k(   31) = (   0.0000000  -0.5000000   0.0000000), wk =   0.0312500
        k(   32) = (   0.7500000  -0.7500000   0.7500000), wk =   0.0000000
        k(   33) = (   0.5000000   0.0000000   0.0000000), wk =   0.0625000
        k(   34) = (   1.2500000  -0.2500000   0.7500000), wk =   0.0000000
        k(   35) = (   0.0000000   0.0000000  -0.5000000), wk =   0.0625000
        k(   36) = (   0.7500000  -0.2500000   0.2500000), wk =   0.0000000
        k(   37) = (   0.7500000  -0.2500000  -0.7500000), wk =   0.0625000
        k(   38) = (   1.5000000  -0.5000000   0.0000000), wk =   0.0000000
        k(   39) = (  -0.7500000  -0.2500000  -0.7500000), wk =   0.0312500
        k(   40) = (   0.0000000  -0.5000000   0.0000000), wk =   0.0000000
        k(   41) = (  -0.7500000   0.2500000  -0.7500000), wk =   0.0312500
        k(   42) = (   0.0000000   0.0000000   0.0000000), wk =   0.0000000
        k(   43) = (  -0.2500000   0.7500000  -0.7500000), wk =   0.0625000
        k(   44) = (   0.5000000   0.5000000   0.0000000), wk =   0.0000000
        k(   45) = (   0.7500000   0.2500000   0.7500000), wk =   0.0312500
        k(   46) = (   1.5000000   0.0000000   1.5000000), wk =   0.0000000
        k(   47) = (  -0.7500000   0.2500000   0.7500000), wk =   0.0625000
        k(   48) = (   0.0000000   0.0000000   1.5000000), wk =   0.0000000
        k(   49) = (  -0.7500000   0.7500000   0.2500000), wk =   0.0625000
        k(   50) = (   0.0000000   0.5000000   1.0000000), wk =   0.0000000
        k(   51) = (  -0.2500000   0.7500000   0.7500000), wk =   0.0625000
        k(   52) = (   0.5000000   0.5000000   1.5000000), wk =   0.0000000
        k(   53) = (  -0.2500000  -0.7500000  -0.7500000), wk =   0.0625000
        k(   54) = (   0.5000000  -1.0000000   0.0000000), wk =   0.0000000
        k(   55) = (   0.7500000  -0.7500000   0.2500000), wk =   0.0625000
        k(   56) = (   1.5000000  -1.0000000   1.0000000), wk =   0.0000000
        k(   57) = (  -0.7500000  -0.7500000   0.2500000), wk =   0.0625000
        k(   58) = (   0.0000000  -1.0000000   1.0000000), wk =   0.0000000
        k(   59) = (   0.2500000   0.7500000   0.7500000), wk =   0.0625000
        k(   60) = (   1.0000000   0.5000000   1.5000000), wk =   0.0000000
        k(   61) = (  -0.2500000  -0.7500000   0.7500000), wk =   0.0625000
        k(   62) = (   0.5000000  -1.0000000   1.5000000), wk =   0.0000000
        k(   63) = (   0.5000000   0.0000000  -0.5000000), wk =   0.0625000
        k(   64) = (   1.2500000  -0.2500000   0.2500000), wk =   0.0000000
        k(   65) = (  -0.5000000   0.0000000  -0.5000000), wk =   0.0312500
        k(   66) = (   0.2500000  -0.2500000   0.2500000), wk =   0.0000000
        k(   67) = (   0.0000000   0.5000000  -0.5000000), wk =   0.0625000
        k(   68) = (   0.7500000   0.2500000   0.2500000), wk =   0.0000000
        k(   69) = (   0.0000000   0.5000000   0.5000000), wk =   0.0625000
        k(   70) = (   0.7500000   0.2500000   1.2500000), wk =   0.0000000
        k(   71) = (   0.0000000  -0.5000000  -0.5000000), wk =   0.0625000
        k(   72) = (   0.7500000  -0.7500000   0.2500000), wk =   0.0000000
        k(   73) = (   0.5000000  -0.5000000   0.0000000), wk =   0.0625000
        k(   74) = (   1.2500000  -0.7500000   0.7500000), wk =   0.0000000
        k(   75) = (  -1.0000000   0.0000000   0.0000000), wk =   0.0625000
        k(   76) = (  -0.2500000  -0.2500000   0.7500000), wk =   0.0000000
        k(   77) = (   0.5000000  -1.0000000   0.0000000), wk =   0.0625000
        k(   78) = (   1.2500000  -1.2500000   0.7500000), wk =   0.0000000
        k(   79) = (  -1.0000000  -0.5000000   0.0000000), wk =   0.0625000
        k(   80) = (  -0.2500000  -0.7500000   0.7500000), wk =   0.0000000

     Dense  grid:     3943 G-vectors     FFT dimensions: (  24,  24,  24)

     Estimated max dynamical RAM per process >       0.58 MB

     Estimated total dynamical RAM >       2.30 MB

     The potential is recalculated from file :
     ./tmp/_ph0/silicon.save/charge-density

     Starting wfcs are    8 atomic wfcs

     Band Structure Calculation
     Davidson diagonalization with overlap

     ethr =  1.25E-10,  avg # of iterations =  9.8

     total cpu time spent up to now is        1.8 secs

     End of band structure calculation

          k = 0.0000 0.0000 0.0000 (   531 PWs)   bands (ev):

    -5.6105   6.8997   6.8997   6.8997

          k = 0.7500-0.2500 0.7500 (   497 PWs)   bands (ev):

    -2.6826   0.2859   3.0877   4.5343

          k =-0.2500 0.2500-0.2500 (   507 PWs)   bands (ev):

    -4.7538   2.8019   6.0914   6.0914

          k = 0.5000 0.0000 0.5000 (   500 PWs)   bands (ev):

    -3.4132   1.2611   2.8176   5.4859

          k = 0.5000-0.5000 0.5000 (   502 PWs)   bands (ev):

    -3.0679  -0.4753   5.6373   5.6373

          k = 1.2500-0.7500 1.2500 (   507 PWs)   bands (ev):

    -4.7538   2.8019   6.0914   6.0914

          k = 0.0000 0.5000 0.0000 (   504 PWs)   bands (ev):

    -4.4543   3.3802   4.8615   4.8615

          k = 0.7500 0.2500 0.7500 (   497 PWs)   bands (ev):

    -2.6826   0.2859   3.0877   4.5343

          k = 0.7500-0.2500 0.7500 (   497 PWs)   bands (ev):

    -2.6826   0.2859   3.0877   4.5343

          k = 1.5000-0.5000 1.5000 (   502 PWs)   bands (ev):

    -3.0679  -0.4753   5.6373   5.6373

          k = 0.5000 0.0000 0.5000 (   500 PWs)   bands (ev):

    -3.4132   1.2611   2.8176   5.4859

          k = 1.2500-0.2500 1.2500 (   497 PWs)   bands (ev):

    -2.6826   0.2859   3.0877   4.5343

          k = 0.0000-1.0000 0.0000 (   468 PWs)   bands (ev):

    -1.1778  -1.1778   3.8397   3.8397

          k = 0.7500-1.2500 0.7500 (   507 PWs)   bands (ev):

    -4.7538   2.8019   6.0914   6.0914

          k =-0.5000-1.0000 0.0000 (   488 PWs)   bands (ev):

    -0.9720  -0.9720   2.6835   2.6835

          k = 0.2500-1.2500 0.7500 (   497 PWs)   bands (ev):

    -2.6826   0.2859   3.0877   4.5343

          k =-0.2500 0.2500 0.2500 (   507 PWs)   bands (ev):

    -4.7538   2.8019   6.0914   6.0914

          k = 0.5000 0.0000 1.0000 (   488 PWs)   bands (ev):

    -0.9720  -0.9720   2.6835   2.6835

          k = 0.2500 0.2500 0.2500 (   507 PWs)   bands (ev):

    -4.7538   2.8019   6.0914   6.0914

          k = 1.0000 0.0000 1.0000 (   468 PWs)   bands (ev):

    -1.1778  -1.1778   3.8397   3.8397

          k = 0.2500-0.2500 0.2500 (   507 PWs)   bands (ev):

    -4.7538   2.8019   6.0914   6.0914

          k = 1.0000-0.5000 1.0000 (   504 PWs)   bands (ev):

    -4.4543   3.3802   4.8615   4.8615

          k =-0.2500-0.2500-0.2500 (   507 PWs)   bands (ev):

    -4.7538   2.8019   6.0914   6.0914

          k = 0.5000-0.5000 0.5000 (   502 PWs)   bands (ev):

    -3.0679  -0.4753   5.6373   5.6373

          k = 0.2500-0.2500-0.2500 (   507 PWs)   bands (ev):

    -4.7538   2.8019   6.0914   6.0914

          k = 1.0000-0.5000 0.5000 (   500 PWs)   bands (ev):

    -3.4132   1.2611   2.8176   5.4859

          k = 0.5000-0.5000-0.5000 (   502 PWs)   bands (ev):

    -3.0679  -0.4753   5.6373   5.6373

          k = 1.2500-0.7500 0.2500 (   497 PWs)   bands (ev):

    -2.6826   0.2859   3.0877   4.5343

          k =-0.5000-0.5000-0.5000 (   502 PWs)   bands (ev):

    -3.0679  -0.4753   5.6373   5.6373

          k = 0.2500-0.7500 0.2500 (   497 PWs)   bands (ev):

    -2.6826   0.2859   3.0877   4.5343

          k = 0.0000-0.5000 0.0000 (   504 PWs)   bands (ev):

    -4.4543   3.3802   4.8615   4.8615

          k = 0.7500-0.7500 0.7500 (   507 PWs)   bands (ev):

    -4.7538   2.8019   6.0914   6.0914

          k = 0.5000 0.0000 0.0000 (   504 PWs)   bands (ev):

    -4.4543   3.3802   4.8615   4.8615

          k = 1.2500-0.2500 0.7500 (   497 PWs)   bands (ev):

    -2.6826   0.2859   3.0877   4.5343

          k = 0.0000 0.0000-0.5000 (   504 PWs)   bands (ev):

    -4.4543   3.3802   4.8615   4.8615

          k = 0.7500-0.2500 0.2500 (   497 PWs)   bands (ev):

    -2.6826   0.2859   3.0877   4.5343

          k = 0.7500-0.2500-0.7500 (   497 PWs)   bands (ev):

    -2.6826   0.2859   3.0877   4.5343

          k = 1.5000-0.5000 0.0000 (   500 PWs)   bands (ev):

    -3.4132   1.2611   2.8176   5.4859

          k =-0.7500-0.2500-0.7500 (   497 PWs)   bands (ev):

    -2.6826   0.2859   3.0877   4.5343

          k = 0.0000-0.5000 0.0000 (   504 PWs)   bands (ev):

    -4.4543   3.3802   4.8615   4.8615

          k =-0.7500 0.2500-0.7500 (   497 PWs)   bands (ev):

    -2.6826   0.2859   3.0877   4.5343

          k = 0.0000 0.0000 0.0000 (   531 PWs)   bands (ev):

    -5.6105   6.8997   6.8997   6.8997

          k =-0.2500 0.7500-0.7500 (   497 PWs)   bands (ev):

    -2.6826   0.2859   3.0877   4.5343

          k = 0.5000 0.5000 0.0000 (   500 PWs)   bands (ev):

    -3.4132   1.2611   2.8176   5.4859

          k = 0.7500 0.2500 0.7500 (   497 PWs)   bands (ev):

    -2.6826   0.2859   3.0877   4.5343

          k = 1.5000 0.0000 1.5000 (   500 PWs)   bands (ev):

    -3.4132   1.2611   2.8176   5.4859

          k =-0.7500 0.2500 0.7500 (   497 PWs)   bands (ev):

    -2.6826   0.2859   3.0877   4.5343

          k = 0.0000 0.0000 1.5000 (   504 PWs)   bands (ev):

    -4.4543   3.3802   4.8615   4.8615

          k =-0.7500 0.7500 0.2500 (   497 PWs)   bands (ev):

    -2.6826   0.2859   3.0877   4.5343

          k = 0.0000 0.5000 1.0000 (   488 PWs)   bands (ev):

    -0.9720  -0.9720   2.6835   2.6835

          k =-0.2500 0.7500 0.7500 (   497 PWs)   bands (ev):

    -2.6826   0.2859   3.0877   4.5343

          k = 0.5000 0.5000 1.5000 (   502 PWs)   bands (ev):

    -3.0679  -0.4753   5.6373   5.6373

          k =-0.2500-0.7500-0.7500 (   497 PWs)   bands (ev):

    -2.6826   0.2859   3.0877   4.5343

          k = 0.5000-1.0000 0.0000 (   488 PWs)   bands (ev):

    -0.9720  -0.9720   2.6835   2.6835

          k = 0.7500-0.7500 0.2500 (   497 PWs)   bands (ev):

    -2.6826   0.2859   3.0877   4.5343

          k = 1.5000-1.0000 1.0000 (   504 PWs)   bands (ev):

    -4.4543   3.3802   4.8615   4.8615

          k =-0.7500-0.7500 0.2500 (   497 PWs)   bands (ev):

    -2.6826   0.2859   3.0877   4.5343

          k = 0.0000-1.0000 1.0000 (   468 PWs)   bands (ev):

    -1.1778  -1.1778   3.8397   3.8397

          k = 0.2500 0.7500 0.7500 (   497 PWs)   bands (ev):

    -2.6826   0.2859   3.0877   4.5343

          k = 1.0000 0.5000 1.5000 (   500 PWs)   bands (ev):

    -3.4132   1.2611   2.8176   5.4859

          k =-0.2500-0.7500 0.7500 (   497 PWs)   bands (ev):

    -2.6826   0.2859   3.0877   4.5343

          k = 0.5000-1.0000 1.5000 (   500 PWs)   bands (ev):

    -3.4132   1.2611   2.8176   5.4859

          k = 0.5000 0.0000-0.5000 (   500 PWs)   bands (ev):

    -3.4132   1.2611   2.8176   5.4859

          k = 1.2500-0.2500 0.2500 (   497 PWs)   bands (ev):

    -2.6826   0.2859   3.0877   4.5343

          k =-0.5000 0.0000-0.5000 (   500 PWs)   bands (ev):

    -3.4132   1.2611   2.8176   5.4859

          k = 0.2500-0.2500 0.2500 (   507 PWs)   bands (ev):

    -4.7538   2.8019   6.0914   6.0914

          k = 0.0000 0.5000-0.5000 (   500 PWs)   bands (ev):

    -3.4132   1.2611   2.8176   5.4859

          k = 0.7500 0.2500 0.2500 (   497 PWs)   bands (ev):

    -2.6826   0.2859   3.0877   4.5343

          k = 0.0000 0.5000 0.5000 (   500 PWs)   bands (ev):

    -3.4132   1.2611   2.8176   5.4859

          k = 0.7500 0.2500 1.2500 (   497 PWs)   bands (ev):

    -2.6826   0.2859   3.0877   4.5343

          k = 0.0000-0.5000-0.5000 (   500 PWs)   bands (ev):

    -3.4132   1.2611   2.8176   5.4859

          k = 0.7500-0.7500 0.2500 (   497 PWs)   bands (ev):

    -2.6826   0.2859   3.0877   4.5343

          k = 0.5000-0.5000 0.0000 (   500 PWs)   bands (ev):

    -3.4132   1.2611   2.8176   5.4859

          k = 1.2500-0.7500 0.7500 (   507 PWs)   bands (ev):

    -4.7538   2.8019   6.0914   6.0914

          k =-1.0000 0.0000 0.0000 (   468 PWs)   bands (ev):

    -1.1778  -1.1778   3.8397   3.8397

          k =-0.2500-0.2500 0.7500 (   497 PWs)   bands (ev):

    -2.6826   0.2859   3.0877   4.5343

          k = 0.5000-1.0000 0.0000 (   488 PWs)   bands (ev):

    -0.9720  -0.9720   2.6835   2.6835

          k = 1.2500-1.2500 0.7500 (   507 PWs)   bands (ev):

    -4.7538   2.8019   6.0914   6.0914

          k =-1.0000-0.5000 0.0000 (   488 PWs)   bands (ev):

[...]
     lattice parameter (alat)  =      10.0000  a.u.
     unit-cell volume          =     250.0000 (a.u.)^3
     number of atoms/cell      =            2
     number of atomic types    =            1
     number of electrons       =         8.00
     number of Kohn-Sham states=            4
     kinetic-energy cutoff     =      24.0000  Ry
     charge density cutoff     =      96.0000  Ry
     Exchange-correlation      = PZ ( 1  1  0  0 0 0)

     celldm(1)=  10.000000  celldm(2)=   0.000000  celldm(3)=   0.000000
     celldm(4)=   0.000000  celldm(5)=   0.000000  celldm(6)=   0.000000

     crystal axes: (cart. coord. in units of alat)
               a(1) = (  -0.500000   0.000000   0.500000 )  
               a(2) = (   0.000000   0.500000   0.500000 )  
               a(3) = (  -0.500000   0.500000   0.000000 )  

     reciprocal axes: (cart. coord. in units 2 pi/alat)
               b(1) = ( -1.000000 -1.000000  1.000000 )  
               b(2) = (  1.000000  1.000000  1.000000 )  
               b(3) = ( -1.000000  1.000000 -1.000000 )  


     PseudoPot. # 1 for Si read from file:
     ../Si.pz-rrkj.UPF
     MD5 check sum: 884b380b739b48e9cd334294cddc9a8d
     Pseudo is Norm-conserving, Zval =  4.0
     Generated using "atomic" code by A. Dal Corso (espresso distribution)
     Using radial grid of 1141 points,  2 beta functions with: 
                l(1) =   0
                l(2) =   1

     atomic species   valence    mass     pseudopotential
        Si             4.00    28.08600     Si( 1.00)

     48 Sym. Ops., with inversion, found



   Cartesian axes

     site n.     atom                  positions (alat units)
         1           Si  tau(   1) = (   0.0000000   0.0000000   0.0000000  )
         2           Si  tau(   2) = (   0.2500000   0.2500000   0.2500000  )

     number of k points=    32
                       cart. coord. in units 2pi/alat
        k(    1) = (   0.0000000   0.0000000   0.0000000), wk =   0.0312500
        k(    2) = (  -0.5000000  -1.0000000   0.0000000), wk =   0.0000000
        k(    3) = (  -0.2500000   0.2500000  -0.2500000), wk =   0.2500000
        k(    4) = (  -0.7500000  -0.7500000  -0.2500000), wk =   0.0000000
        k(    5) = (   0.5000000  -0.5000000   0.5000000), wk =   0.1250000
        k(    6) = (   0.0000000  -1.5000000   0.5000000), wk =   0.0000000
        k(    7) = (   0.0000000   0.5000000   0.0000000), wk =   0.1250000
        k(    8) = (  -0.5000000  -0.5000000   0.0000000), wk =   0.0000000
        k(    9) = (   0.7500000  -0.2500000   0.7500000), wk =   0.2500000
        k(   10) = (   0.2500000  -1.2500000   0.7500000), wk =   0.0000000
        k(   11) = (   0.5000000   0.0000000   0.5000000), wk =   0.1250000
        k(   12) = (   0.0000000  -1.0000000   0.5000000), wk =   0.0000000
        k(   13) = (   0.0000000  -1.0000000   0.0000000), wk =   0.0625000
        k(   14) = (  -0.5000000  -2.0000000   0.0000000), wk =   0.0000000
        k(   15) = (  -0.5000000  -1.0000000   0.0000000), wk =   0.0312500
        k(   16) = (  -1.0000000  -2.0000000   0.0000000), wk =   0.0000000
        k(   17) = (   0.5000000   0.0000000   0.0000000), wk =   0.0625000
        k(   18) = (   0.0000000  -1.0000000   0.0000000), wk =   0.0000000
        k(   19) = (  -0.7500000   0.2500000  -0.7500000), wk =   0.2500000
        k(   20) = (  -1.2500000  -0.7500000  -0.7500000), wk =   0.0000000
        k(   21) = (  -0.2500000   0.7500000   0.7500000), wk =   0.2500000
        k(   22) = (  -0.7500000  -0.2500000   0.7500000), wk =   0.0000000
        k(   23) = (  -0.5000000   0.0000000  -0.5000000), wk =   0.1250000
        k(   24) = (  -1.0000000  -1.0000000  -0.5000000), wk =   0.0000000
        k(   25) = (   0.0000000   0.5000000   0.5000000), wk =   0.1250000
        k(   26) = (  -0.5000000  -0.5000000   0.5000000), wk =   0.0000000
        k(   27) = (  -1.0000000   0.0000000   0.0000000), wk =   0.0312500
        k(   28) = (  -1.5000000  -1.0000000   0.0000000), wk =   0.0000000
        k(   29) = (   0.0000000   1.0000000   0.5000000), wk =   0.1250000
        k(   30) = (  -0.5000000   0.0000000   0.5000000), wk =   0.0000000
        k(   31) = (   0.5000000   1.0000000   0.0000000), wk =   0.0312500
        k(   32) = (   0.0000000   0.0000000   0.0000000), wk =   0.0000000

     Dense  grid:     3943 G-vectors     FFT dimensions: (  24,  24,  24)

     Estimated max dynamical RAM per process >       0.58 MB

     Estimated total dynamical RAM >       2.30 MB

     The potential is recalculated from file :
     ./tmp/_ph0/silicon.save/charge-density

     Starting wfcs are    8 atomic wfcs

     Band Structure Calculation
     Davidson diagonalization with overlap

     ethr =  1.25E-10,  avg # of iterations =  9.5

     total cpu time spent up to now is        2.7 secs

     End of band structure calculation

          k = 0.0000 0.0000 0.0000 (   531 PWs)   bands (ev):

    -5.6105   6.8997   6.8997   6.8997

          k =-0.5000-1.0000 0.0000 (   488 PWs)   bands (ev):

    -0.9720  -0.9720   2.6835   2.6835

          k =-0.2500 0.2500-0.2500 (   507 PWs)   bands (ev):

    -4.7538   2.8019   6.0914   6.0914

          k =-0.7500-0.7500-0.2500 (   497 PWs)   bands (ev):

    -2.6826   0.2859   3.0877   4.5343

          k = 0.5000-0.5000 0.5000 (   502 PWs)   bands (ev):

    -3.0679  -0.4753   5.6373   5.6373

          k = 0.0000-1.5000 0.5000 (   500 PWs)   bands (ev):

    -3.4132   1.2611   2.8176   5.4859

          k = 0.0000 0.5000 0.0000 (   504 PWs)   bands (ev):

    -4.4543   3.3802   4.8615   4.8615

          k =-0.5000-0.5000 0.0000 (   500 PWs)   bands (ev):

    -3.4132   1.2611   2.8176   5.4859

          k = 0.7500-0.2500 0.7500 (   497 PWs)   bands (ev):

    -2.6826   0.2859   3.0877   4.5343

          k = 0.2500-1.2500 0.7500 (   497 PWs)   bands (ev):

    -2.6826   0.2859   3.0877   4.5343

          k = 0.5000 0.0000 0.5000 (   500 PWs)   bands (ev):

    -3.4132   1.2611   2.8176   5.4859

          k = 0.0000-1.0000 0.5000 (   488 PWs)   bands (ev):

    -0.9720  -0.9720   2.6835   2.6835

          k = 0.0000-1.0000 0.0000 (   468 PWs)   bands (ev):

    -1.1778  -1.1778   3.8397   3.8397

          k =-0.5000-2.0000 0.0000 (   504 PWs)   bands (ev):

    -4.4543   3.3802   4.8615   4.8615

          k =-0.5000-1.0000 0.0000 (   488 PWs)   bands (ev):

    -0.9720  -0.9720   2.6835   2.6835

          k =-1.0000-2.0000 0.0000 (   468 PWs)   bands (ev):

    -1.1778  -1.1778   3.8397   3.8397

          k = 0.5000 0.0000 0.0000 (   504 PWs)   bands (ev):

    -4.4543   3.3802   4.8615   4.8615

          k = 0.0000-1.0000 0.0000 (   468 PWs)   bands (ev):

    -1.1778  -1.1778   3.8397   3.8397

          k =-0.7500 0.2500-0.7500 (   497 PWs)   bands (ev):

    -2.6826   0.2859   3.0877   4.5343

          k =-1.2500-0.7500-0.7500 (   507 PWs)   bands (ev):

    -4.7538   2.8019   6.0914   6.0914

          k =-0.2500 0.7500 0.7500 (   497 PWs)   bands (ev):

    -2.6826   0.2859   3.0877   4.5343

          k =-0.7500-0.2500 0.7500 (   497 PWs)   bands (ev):

    -2.6826   0.2859   3.0877   4.5343

          k =-0.5000 0.0000-0.5000 (   500 PWs)   bands (ev):

    -3.4132   1.2611   2.8176   5.4859

          k =-1.0000-1.0000-0.5000 (   504 PWs)   bands (ev):

    -4.4543   3.3802   4.8615   4.8615

          k = 0.0000 0.5000 0.5000 (   500 PWs)   bands (ev):

    -3.4132   1.2611   2.8176   5.4859

          k =-0.5000-0.5000 0.5000 (   502 PWs)   bands (ev):

    -3.0679  -0.4753   5.6373   5.6373

          k =-1.0000 0.0000 0.0000 (   468 PWs)   bands (ev):

    -1.1778  -1.1778   3.8397   3.8397

          k =-1.5000-1.0000 0.0000 (   488 PWs)   bands (ev):

    -0.9720  -0.9720   2.6835   2.6835

          k = 0.0000 1.0000 0.5000 (   488 PWs)   bands (ev):

    -0.9720  -0.9720   2.6835   2.6835

          k =-0.5000 0.0000 0.5000 (   500 PWs)   bands (ev):

    -3.4132   1.2611   2.8176   5.4859

          k = 0.5000 1.0000 0.0000 (   488 PWs)   bands (ev):

    -0.9720  -0.9720   2.6835   2.6835

          k = 0.0000 0.0000 0.0000 (   531 PWs)   bands (ev):

    -5.6105   6.8997   6.8997   6.8997

     highest occupied level (ev):     6.8997

     Writing output data file silicon.save/

     Ph                                                                         

     bravais-lattice index     =            2
     lattice parameter (alat)  =      10.0000  a.u.
     unit-cell volume          =     250.0000 (a.u.)^3
     number of atoms/cell      =            2
     number of atomic types    =            1
     kinetic-energy cut-off    =      24.0000  Ry
     charge density cut-off    =      96.0000  Ry
     convergence threshold     =      1.0E-16
     beta                      =       0.7000
     number of iterations used =            4
     Exchange-correlation      = PZ ( 1  1  0  0 0 0)


     celldm(1)=   10.00000  celldm(2)=    0.00000  celldm(3)=    0.00000
     celldm(4)=    0.00000  celldm(5)=    0.00000  celldm(6)=    0.00000

     crystal axes: (cart. coord. in units of alat)
               a(1) = ( -0.5000  0.0000  0.5000 )  
               a(2) = (  0.0000  0.5000  0.5000 )  
               a(3) = ( -0.5000  0.5000  0.0000 )  

     reciprocal axes: (cart. coord. in units 2 pi/alat)
               b(1) = ( -1.0000 -1.0000  1.0000 )  
               b(2) = (  1.0000  1.0000  1.0000 )  
               b(3) = ( -1.0000  1.0000 -1.0000 )  


     Atoms inside the unit cell: 

     Cartesian axes

     site n.  atom      mass           positions (alat units)
        1     Si  28.0860   tau(    1) = (    0.00000    0.00000    0.00000  )
        2     Si  28.0860   tau(    2) = (    0.25000    0.25000    0.25000  )

     Computing dynamical matrix for 
                    q = (  -0.5000000  -1.0000000   0.0000000 )

      8 Sym.Ops. (no q -> -q+G )


     G cutoff =  243.1708  (    985 G-vectors)     FFT grid: ( 24, 24, 24)
     number of k points=    32

     PseudoPot. # 1 for Si read from file:
     ../Si.pz-rrkj.UPF
     MD5 check sum: 884b380b739b48e9cd334294cddc9a8d
     Pseudo is Norm-conserving, Zval =  4.0
     Generated using "atomic" code by A. Dal Corso (espresso distribution)
     Using radial grid of 1141 points,  2 beta functions with: 
                l(1) =   0
                l(2) =   1


     Atomic displacements:
     There are   3 irreducible representations

     Representation     1      2 modes -  To be done

     Representation     2      2 modes -  To be done

     Representation     3      2 modes -  To be done



     Alpha used in Ewald sum =   1.0000
     PHONON       :     50.13s CPU     57.23s WALL



     Representation #  1 modes #   1  2

     Self-consistent Calculation

      iter #   1 total cpu time :    57.4 secs   av.it.:   5.7
      thresh= 1.000E-02 alpha_mix =  0.700 |ddv_scf|^2 =  6.279E-06

      iter #   2 total cpu time :    57.7 secs   av.it.:   9.1
      thresh= 2.506E-04 alpha_mix =  0.700 |ddv_scf|^2 =  7.386E-06

      iter #   3 total cpu time :    58.0 secs   av.it.:   8.5
      thresh= 2.718E-04 alpha_mix =  0.700 |ddv_scf|^2 =  5.979E-10

      iter #   4 total cpu time :    58.3 secs   av.it.:   8.8
      thresh= 2.445E-06 alpha_mix =  0.700 |ddv_scf|^2 =  2.443E-11

      iter #   5 total cpu time :    58.7 secs   av.it.:   8.5
      thresh= 4.942E-07 alpha_mix =  0.700 |ddv_scf|^2 =  4.431E-14

      iter #   6 total cpu time :    59.1 secs   av.it.:   8.4
      thresh= 2.105E-08 alpha_mix =  0.700 |ddv_scf|^2 =  9.955E-16

      iter #   7 total cpu time :    59.4 secs   av.it.:   8.9
      thresh= 3.155E-09 alpha_mix =  0.700 |ddv_scf|^2 =  2.031E-18

     End of self-consistent calculation

     Convergence has been achieved 


     Representation #  2 modes #   3  4

     Self-consistent Calculation

      iter #   1 total cpu time :    59.7 secs   av.it.:   5.6
      thresh= 1.000E-02 alpha_mix =  0.700 |ddv_scf|^2 =  3.264E-06

      iter #   2 total cpu time :    60.1 secs   av.it.:   9.2
      thresh= 1.807E-04 alpha_mix =  0.700 |ddv_scf|^2 =  2.314E-06

      iter #   3 total cpu time :    60.4 secs   av.it.:   8.5
      thresh= 1.521E-04 alpha_mix =  0.700 |ddv_scf|^2 =  2.091E-10

      iter #   4 total cpu time :    60.8 secs   av.it.:   8.7
      thresh= 1.446E-06 alpha_mix =  0.700 |ddv_scf|^2 =  1.325E-11

      iter #   5 total cpu time :    61.1 secs   av.it.:   8.8
      thresh= 3.640E-07 alpha_mix =  0.700 |ddv_scf|^2 =  2.208E-14

      iter #   6 total cpu time :    61.5 secs   av.it.:   9.2
      thresh= 1.486E-08 alpha_mix =  0.700 |ddv_scf|^2 =  3.274E-16

      iter #   7 total cpu time :    61.9 secs   av.it.:   9.2
      thresh= 1.809E-09 alpha_mix =  0.700 |ddv_scf|^2 =  9.836E-17

     End of self-consistent calculation

     Convergence has been achieved 


     Representation #  3 modes #   5  6

     Self-consistent Calculation

      iter #   1 total cpu time :    62.2 secs   av.it.:   5.7
      thresh= 1.000E-02 alpha_mix =  0.700 |ddv_scf|^2 =  3.959E-06

      iter #   2 total cpu time :    62.5 secs   av.it.:   9.2
      thresh= 1.990E-04 alpha_mix =  0.700 |ddv_scf|^2 =  2.882E-06

      iter #   3 total cpu time :    62.9 secs   av.it.:   8.6
      thresh= 1.698E-04 alpha_mix =  0.700 |ddv_scf|^2 =  1.914E-10

      iter #   4 total cpu time :    63.2 secs   av.it.:   8.8
      thresh= 1.383E-06 alpha_mix =  0.700 |ddv_scf|^2 =  2.229E-11

      iter #   5 total cpu time :    63.6 secs   av.it.:   8.6
      thresh= 4.721E-07 alpha_mix =  0.700 |ddv_scf|^2 =  1.183E-14

      iter #   6 total cpu time :    63.9 secs   av.it.:   9.2
      thresh= 1.087E-08 alpha_mix =  0.700 |ddv_scf|^2 =  2.252E-16

      iter #   7 total cpu time :    64.1 secs   av.it.:   9.3
      thresh= 1.501E-09 alpha_mix =  0.700 |ddv_scf|^2 =  1.600E-17

     End of self-consistent calculation

     Convergence has been achieved 

     Number of q in the star =    6
     List of q in the star:
          1  -0.500000000  -1.000000000   0.000000000
          2   0.000000000   1.000000000   0.500000000
          3   0.000000000  -1.000000000  -0.500000000
          4   0.500000000   1.000000000   0.000000000
          5  -1.000000000  -0.500000000   0.000000000
          6   0.000000000  -0.500000000  -1.000000000

     Diagonalizing the dynamical matrix

     q = (   -0.500000000  -1.000000000   0.000000000 ) 

 **************************************************************************
     freq (    1) =       6.158426 [THz] =     205.422988 [cm-1]
     freq (    2) =       6.158426 [THz] =     205.422988 [cm-1]
     freq (    3) =      11.226102 [THz] =     374.462446 [cm-1]
     freq (    4) =      11.226102 [THz] =     374.462446 [cm-1]
     freq (    5) =      14.856184 [THz] =     495.548943 [cm-1]
     freq (    6) =      14.856184 [THz] =     495.548943 [cm-1]
 **************************************************************************

     init_run     :      0.13s CPU      0.13s WALL (       7 calls)
     electrons    :      2.26s CPU      2.56s WALL (       7 calls)

     Called by init_run:
     wfcinit      :      0.00s CPU      0.00s WALL (       7 calls)
     potinit      :      0.00s CPU      0.00s WALL (       7 calls)
     hinit0       :      0.10s CPU      0.10s WALL (       7 calls)

     Called by electrons:
     c_bands      :      2.26s CPU      2.56s WALL (       7 calls)
     v_of_rho     :      0.00s CPU      0.00s WALL (       8 calls)

     Called by c_bands:
     init_us_2    :      0.17s CPU      0.20s WALL (    7351 calls)
     cegterg      :      1.89s CPU      2.14s WALL (     292 calls)

     Called by sum_band:

     Called by *egterg:
     h_psi        :     38.07s CPU     43.58s WALL (   74956 calls)
     g_psi        :      0.02s CPU      0.02s WALL (    2836 calls)
     cdiaghg      :      0.15s CPU      0.17s WALL (    3128 calls)

     Called by h_psi:
     h_psi:pot    :     37.80s CPU     43.26s WALL (   74956 calls)
     h_psi:calbec :      1.34s CPU      1.52s WALL (   74956 calls)
     vloc_psi     :     35.49s CPU     40.62s WALL (   74956 calls)
     add_vuspsi   :      0.51s CPU      0.58s WALL (   74956 calls)

     General routines
     calbec       :      1.91s CPU      2.19s WALL (  151752 calls)
     fft          :      0.33s CPU      0.34s WALL (    1148 calls)
     ffts         :      0.11s CPU      0.12s WALL (    1164 calls)
     fftw         :     37.90s CPU     43.34s WALL (  658944 calls)
     davcio       :      0.31s CPU      0.35s WALL (   37678 calls)

     Parallel routines
     fft_scatt_xy :      5.85s CPU      6.71s WALL (  661256 calls)
     fft_scatt_yz :     13.56s CPU     15.46s WALL (  661256 calls)

     PHONON       :     56.34s CPU   1m 4.12s WALL

     INITIALIZATION: 
     phq_setup    :      0.03s CPU      0.03s WALL (       8 calls)
     phq_init     :      0.18s CPU      0.18s WALL (       8 calls)

     phq_init     :      0.18s CPU      0.18s WALL (       8 calls)
     init_vloc    :      0.01s CPU      0.01s WALL (       8 calls)
     init_us_1    :      0.05s CPU      0.05s WALL (       8 calls)

     DYNAMICAL MATRIX:
     dynmat0      :      0.04s CPU      0.04s WALL (       8 calls)
     phqscf       :     52.04s CPU     59.29s WALL (       8 calls)
     dynmatrix    :      0.02s CPU      0.02s WALL (       8 calls)

     phqscf       :     52.04s CPU     59.29s WALL (       8 calls)
     solve_linter :     51.88s CPU     59.09s WALL (      32 calls)
     drhodv       :      0.10s CPU      0.13s WALL (      32 calls)

     dynmat0      :      0.04s CPU      0.04s WALL (       8 calls)
     dynmat_us    :      0.03s CPU      0.03s WALL (       8 calls)
     d2ionq       :      0.00s CPU      0.00s WALL (       8 calls)

     dynmat_us    :      0.03s CPU      0.03s WALL (       8 calls)

     phqscf       :     52.04s CPU     59.29s WALL (       8 calls)
     solve_linter :     51.88s CPU     59.09s WALL (      32 calls)

     solve_linter :     51.88s CPU     59.09s WALL (      32 calls)
     dvqpsi_us    :      0.64s CPU      0.73s WALL (     972 calls)
     ortho        :      0.16s CPU      0.19s WALL (    7558 calls)
     cgsolve      :     40.55s CPU     46.44s WALL (    7558 calls)
     incdrhoscf   :      4.09s CPU      4.67s WALL (    7534 calls)
     vpsifft      :      3.45s CPU      3.95s WALL (    6466 calls)
     dv_of_drho   :      0.34s CPU      0.35s WALL (     372 calls)
     mix_pot      :      0.10s CPU      0.12s WALL (     259 calls)
     psymdvscf    :      2.65s CPU      2.72s WALL (     253 calls)

     dvqpsi_us    :      0.64s CPU      0.73s WALL (     972 calls)
     dvqpsi_us_on :      0.04s CPU      0.05s WALL (     972 calls)

     cgsolve      :     40.55s CPU     46.44s WALL (    7558 calls)
     ch_psi       :     39.49s CPU     45.21s WALL (   71536 calls)

     ch_psi       :     39.49s CPU     45.21s WALL (   71536 calls)
     h_psi        :     38.07s CPU     43.58s WALL (   74956 calls)
     last         :      2.30s CPU      2.63s WALL (   71536 calls)

     h_psi        :     38.07s CPU     43.58s WALL (   74956 calls)
     add_vuspsi   :      0.51s CPU      0.58s WALL (   74956 calls)

     incdrhoscf   :      4.09s CPU      4.67s WALL (    7534 calls)


      General routines
     calbec       :      1.91s CPU      2.19s WALL (  151752 calls)
     fft          :      0.33s CPU      0.34s WALL (    1148 calls)
     ffts         :      0.11s CPU      0.12s WALL (    1164 calls)
     fftw         :     37.90s CPU     43.34s WALL (  658944 calls)
     davcio       :      0.31s CPU      0.35s WALL (   37678 calls)
     write_rec    :      0.28s CPU      0.43s WALL (     291 calls)


     PHONON       :     56.34s CPU   1m 4.12s WALL


   This run was terminated on:  10:28:43  25Jun2019            

=------------------------------------------------------------------------------=
   JOB DONE.
=------------------------------------------------------------------------------=
