--------------------------------------------------------------------------
[[24591,1],3]: A high-performance Open MPI point-to-point messaging module
was unable to find any relevant network interfaces:

Module: OpenFabrics (openib)
  Host: H388X

Another transport will be used instead, although this may result in
lower performance.

NOTE: You can disable this warning by setting the MCA parameter
btl_base_warn_component_unused to 0.
--------------------------------------------------------------------------

     Program PHONON v.6.7GPU starts on 19Apr2021 at 10:52:48 

     This program is part of the open-source Quantum ESPRESSO suite
     for quantum simulation of materials; please cite
         "P. Giannozzi et al., J. Phys.:Condens. Matter 21 395502 (2009);
         "P. Giannozzi et al., J. Phys.:Condens. Matter 29 465901 (2017);
         "P. Giannozzi et al., J. Chem. Phys. 152 154105 (2020);
          URL http://www.quantum-espresso.org", 
     in publications or presentations arising from this work. More details at
     http://www.quantum-espresso.org/quote

     Parallel version (MPI), running on     4 processors

     MPI processes distributed on     1 nodes
     R & G space division:  proc/nbgrp/npool/nimage =       4
     Reading input from ph.in

     Reading xml data from directory:

     ./tmp/silicon.save/

     IMPORTANT: XC functional enforced from input :
     Exchange-correlation= PZ
                           (   1   1   0   0   0   0   0)
     Any further DFT definition will be discarded
     Please, verify this is what you really want


     Parallelization info
     --------------------
     sticks:   dense  smooth     PW     G-vecs:    dense   smooth      PW
     Min          82      82     27                  985      985     181
     Max          85      85     28                  986      986     182
     Sum         337     337    109                 3943     3943     725

     Using Slab Decomposition

     Reading collected, re-writing distributed wavefunctions


     Dynamical matrices for ( 4, 4, 4)  uniform grid of q-points
     (   8 q-points):
       N         xq(1)         xq(2)         xq(3) 
       1   0.000000000   0.000000000   0.000000000
       2  -0.250000000   0.250000000  -0.250000000
       3   0.500000000  -0.500000000   0.500000000
       4   0.000000000   0.500000000   0.000000000
       5   0.750000000  -0.250000000   0.750000000
       6   0.500000000   0.000000000   0.500000000
       7   0.000000000  -1.000000000   0.000000000
       8  -0.500000000  -1.000000000   0.000000000

     Calculation of q =    0.0000000   0.0000000   0.0000000

     Ph                                                                         

     bravais-lattice index     =            2
     lattice parameter (alat)  =      10.0000  a.u.
     unit-cell volume          =     250.0000 (a.u.)^3
     number of atoms/cell      =            2
     number of atomic types    =            1
     kinetic-energy cut-off    =      24.0000  Ry
     charge density cut-off    =      96.0000  Ry
     convergence threshold     =      1.0E-16
     beta                      =       0.7000
     number of iterations used =            4
     Exchange-correlation= PZ
                           (   1   1   0   0   0   0   0)


     celldm(1)=   10.00000  celldm(2)=    0.00000  celldm(3)=    0.00000
     celldm(4)=    0.00000  celldm(5)=    0.00000  celldm(6)=    0.00000

     crystal axes: (cart. coord. in units of alat)
               a(1) = ( -0.5000  0.0000  0.5000 )  
               a(2) = (  0.0000  0.5000  0.5000 )  
               a(3) = ( -0.5000  0.5000  0.0000 )  

     reciprocal axes: (cart. coord. in units 2 pi/alat)
               b(1) = ( -1.0000 -1.0000  1.0000 )  
               b(2) = (  1.0000  1.0000  1.0000 )  
               b(3) = ( -1.0000  1.0000 -1.0000 )  


     Atoms inside the unit cell: 

     Cartesian axes

     site n.  atom      mass           positions (alat units)
        1     Si  28.0860   tau(    1) = (    0.00000    0.00000    0.00000  )
        2     Si  28.0860   tau(    2) = (    0.25000    0.25000    0.25000  )

     Computing dynamical matrix for 
                    q = (   0.0000000   0.0000000   0.0000000 )

     49 Sym.Ops. (with q -> -q+G )


     G cutoff =  243.1708  (    986 G-vectors)     FFT grid: ( 24, 24, 24)
     number of k points=     8

     PseudoPot. # 1 for Si read from file:
     ../Si.pz-rrkj.UPF
     MD5 check sum: 884b380b739b48e9cd334294cddc9a8d
     Pseudo is Norm-conserving, Zval =  4.0
     Generated using "atomic" code by A. Dal Corso (espresso distribution)
     Using radial grid of 1141 points,  2 beta functions with: 
                l(1) =   0
                l(2) =   1

     Mode symmetry, O_h (m-3m)  point group:


     Electric field:
     Dielectric constant
     Born effective charges in two ways 


     Atomic displacements:
     There are    2 irreducible representations

     Representation     1      3 modes -  To be done

     Representation     2      3 modes -  To be done



     Alpha used in Ewald sum =   1.0000
     PHONON       :      0.09s CPU      0.14s WALL


     Electric Fields Calculation

      iter #   1 total cpu time :     0.9 secs   av.it.:   5.7
      thresh= 1.000E-02 alpha_mix =  0.700 |ddv_scf|^2 =  6.353E-07

      iter #   2 total cpu time :     1.2 secs   av.it.:   9.1
      thresh= 7.971E-05 alpha_mix =  0.700 |ddv_scf|^2 =  2.719E-08

      iter #   3 total cpu time :     1.6 secs   av.it.:   9.1
      thresh= 1.649E-05 alpha_mix =  0.700 |ddv_scf|^2 =  3.744E-10

      iter #   4 total cpu time :     2.0 secs   av.it.:   9.2
      thresh= 1.935E-06 alpha_mix =  0.700 |ddv_scf|^2 =  1.635E-12

      iter #   5 total cpu time :     2.3 secs   av.it.:   8.8
      thresh= 1.279E-07 alpha_mix =  0.700 |ddv_scf|^2 =  1.285E-15

      iter #   6 total cpu time :     2.6 secs   av.it.:   9.0
      thresh= 3.585E-09 alpha_mix =  0.700 |ddv_scf|^2 =  1.004E-17

     End of electric fields calculation

          Dielectric constant in cartesian axis 

          (      23.856918834      -0.000000000       0.000000000 )
          (      -0.000000000      23.856918834       0.000000000 )
          (       0.000000000      -0.000000000      23.856918834 )

          Effective charges (d Force / dE) in cartesian axis

           atom      1   Si 
      Ex  (       -1.23401        0.00000        0.00000 )
      Ey  (        0.00000       -1.23401       -0.00000 )
      Ez  (       -0.00000       -0.00000       -1.23401 )
           atom      2   Si 
      Ex  (       -1.23401        0.00000       -0.00000 )
      Ey  (        0.00000       -1.23401        0.00000 )
      Ez  (        0.00000       -0.00000       -1.23401 )


     Representation #   1 modes #   1   2   3

     Self-consistent Calculation

      iter #   1 total cpu time :     2.9 secs   av.it.:   5.0
      thresh= 1.000E-02 alpha_mix =  0.700 |ddv_scf|^2 =  1.116E-07

      iter #   2 total cpu time :     3.2 secs   av.it.:   8.8
      thresh= 3.341E-05 alpha_mix =  0.700 |ddv_scf|^2 =  1.866E-09

      iter #   3 total cpu time :     3.6 secs   av.it.:   8.9
      thresh= 4.320E-06 alpha_mix =  0.700 |ddv_scf|^2 =  2.749E-11

      iter #   4 total cpu time :     3.9 secs   av.it.:   8.2
      thresh= 5.243E-07 alpha_mix =  0.700 |ddv_scf|^2 =  1.910E-14

      iter #   5 total cpu time :     4.3 secs   av.it.:   9.1
      thresh= 1.382E-08 alpha_mix =  0.700 |ddv_scf|^2 =  1.497E-16
[H388X:27654] 3 more processes have sent help message help-mpi-btl-base.txt / btl:no-nics
[H388X:27654] Set MCA parameter "orte_base_help_aggregate" to 0 to see all help / error messages

      iter #   6 total cpu time :     4.6 secs   av.it.:   8.8
      thresh= 1.223E-09 alpha_mix =  0.700 |ddv_scf|^2 =  1.982E-18

     End of self-consistent calculation

     Convergence has been achieved 


     Representation #   2 modes #   4   5   6

     Self-consistent Calculation

      iter #   1 total cpu time :     4.9 secs   av.it.:   5.1
      thresh= 1.000E-02 alpha_mix =  0.700 |ddv_scf|^2 =  8.112E-08

      iter #   2 total cpu time :     5.2 secs   av.it.:   9.5
      thresh= 2.848E-05 alpha_mix =  0.700 |ddv_scf|^2 =  3.194E-09

      iter #   3 total cpu time :     5.6 secs   av.it.:   9.4
      thresh= 5.651E-06 alpha_mix =  0.700 |ddv_scf|^2 =  3.610E-11

      iter #   4 total cpu time :     6.0 secs   av.it.:   9.1
      thresh= 6.009E-07 alpha_mix =  0.700 |ddv_scf|^2 =  6.958E-14

      iter #   5 total cpu time :     6.3 secs   av.it.:   9.5
      thresh= 2.638E-08 alpha_mix =  0.700 |ddv_scf|^2 =  1.222E-15

      iter #   6 total cpu time :     6.7 secs   av.it.:   9.3
      thresh= 3.496E-09 alpha_mix =  0.700 |ddv_scf|^2 =  4.550E-19

     End of self-consistent calculation

     Convergence has been achieved 

     Number of q in the star =    1
     List of q in the star:
          1   0.000000000   0.000000000   0.000000000

          Dielectric constant in cartesian axis 

          (      23.856918834      -0.000000000       0.000000000 )
          (      -0.000000000      23.856918834       0.000000000 )
          (       0.000000000      -0.000000000      23.856918834 )

          Effective charges (d Force / dE) in cartesian axis

           atom      1   Si 
      Ex  (       -1.23401        0.00000        0.00000 )
      Ey  (        0.00000       -1.23401       -0.00000 )
      Ez  (       -0.00000       -0.00000       -1.23401 )
           atom      2   Si 
      Ex  (       -1.23401        0.00000       -0.00000 )
      Ey  (        0.00000       -1.23401        0.00000 )
      Ez  (        0.00000       -0.00000       -1.23401 )

          Effective charges (d P / du) in cartesian axis 

           atom      1   Si 
      Px  (       -1.23401        0.00000        0.00000 )
      Py  (        0.00000       -1.23401        0.00000 )
      Pz  (        0.00000       -0.00000       -1.23401 )
           atom      2   Si 
      Px  (       -1.23401       -0.00000       -0.00000 )
      Py  (       -0.00000       -1.23401        0.00000 )
      Pz  (       -0.00000        0.00000       -1.23401 )

     Diagonalizing the dynamical matrix

     q = (    0.000000000   0.000000000   0.000000000 ) 

 **************************************************************************
     freq (    1) =       0.127228 [THz] =       4.243884 [cm-1]
     freq (    2) =       0.127228 [THz] =       4.243884 [cm-1]
     freq (    3) =       0.127228 [THz] =       4.243884 [cm-1]
     freq (    4) =      16.434125 [THz] =     548.183388 [cm-1]
     freq (    5) =      16.434125 [THz] =     548.183388 [cm-1]
     freq (    6) =      16.434125 [THz] =     548.183388 [cm-1]
 **************************************************************************

     Mode symmetry, O_h (m-3m)  point group:

     freq (   1-   3) =          4.2  [cm-1]   --> T_1u G_15  G_4- I  
     freq (   4-   6) =        548.2  [cm-1]   --> T_2g G_25' G_5+ R  

     Calculation of q =   -0.2500000   0.2500000  -0.2500000

     Subspace diagonalization in iterative solution of the eigenvalue problem:
     a serial algorithm will be used


     Parallelization info
     --------------------
     sticks:   dense  smooth     PW     G-vecs:    dense   smooth      PW
     Min          82      82     30                  985      985     216
     Max          85      85     31                  986      986     218
     Sum         337     337    121                 3943     3943     869

     Using Slab Decomposition


     Title: 
     Ph                                                                         


     bravais-lattice index     =            2
     lattice parameter (alat)  =      10.0000  a.u.
     unit-cell volume          =     250.0000 (a.u.)^3
     number of atoms/cell      =            2
     number of atomic types    =            1
     number of electrons       =         8.00
     number of Kohn-Sham states=            4
     kinetic-energy cutoff     =      24.0000  Ry
     charge density cutoff     =      96.0000  Ry
     Exchange-correlation= PZ
                           (   1   1   0   0   0   0   0)

     celldm(1)=  10.000000  celldm(2)=   0.000000  celldm(3)=   0.000000
     celldm(4)=   0.000000  celldm(5)=   0.000000  celldm(6)=   0.000000

     crystal axes: (cart. coord. in units of alat)
               a(1) = (  -0.500000   0.000000   0.500000 )  
               a(2) = (   0.000000   0.500000   0.500000 )  
               a(3) = (  -0.500000   0.500000   0.000000 )  

     reciprocal axes: (cart. coord. in units 2 pi/alat)
               b(1) = ( -1.000000 -1.000000  1.000000 )  
               b(2) = (  1.000000  1.000000  1.000000 )  
               b(3) = ( -1.000000  1.000000 -1.000000 )  


     PseudoPot. # 1 for Si read from file:
     ../Si.pz-rrkj.UPF
     MD5 check sum: 884b380b739b48e9cd334294cddc9a8d
     Pseudo is Norm-conserving, Zval =  4.0
     Generated using "atomic" code by A. Dal Corso (espresso distribution)
     Using radial grid of 1141 points,  2 beta functions with: 
                l(1) =   0
                l(2) =   1

     atomic species   valence    mass     pseudopotential
        Si             4.00    28.08600     Si( 1.00)

     48 Sym. Ops., with inversion, found



   Cartesian axes

     site n.     atom                  positions (alat units)
         1           Si  tau(   1) = (   0.0000000   0.0000000   0.0000000  )
         2           Si  tau(   2) = (   0.2500000   0.2500000   0.2500000  )

     number of k points=    40
                       cart. coord. in units 2pi/alat
        k(    1) = (   0.0000000   0.0000000   0.0000000), wk =   0.0312500
        k(    2) = (  -0.2500000   0.2500000  -0.2500000), wk =   0.0000000
        k(    3) = (  -0.2500000   0.2500000  -0.2500000), wk =   0.0312500
        k(    4) = (  -0.5000000   0.5000000  -0.5000000), wk =   0.0000000
        k(    5) = (   0.5000000  -0.5000000   0.5000000), wk =   0.0312500
        k(    6) = (   0.2500000  -0.2500000   0.2500000), wk =   0.0000000
        k(    7) = (   0.0000000   0.5000000   0.0000000), wk =   0.0937500
        k(    8) = (  -0.2500000   0.7500000  -0.2500000), wk =   0.0000000
        k(    9) = (   0.7500000  -0.2500000   0.7500000), wk =   0.0937500
        k(   10) = (   0.5000000   0.0000000   0.5000000), wk =   0.0000000
        k(   11) = (   0.5000000   0.0000000   0.5000000), wk =   0.0937500
        k(   12) = (   0.2500000   0.2500000   0.2500000), wk =   0.0000000
        k(   13) = (   0.0000000  -1.0000000   0.0000000), wk =   0.0937500
        k(   14) = (  -0.2500000  -0.7500000  -0.2500000), wk =   0.0000000
        k(   15) = (  -0.5000000  -1.0000000   0.0000000), wk =   0.1875000
        k(   16) = (  -0.7500000  -0.7500000  -0.2500000), wk =   0.0000000
        k(   17) = (   0.2500000  -0.2500000  -0.2500000), wk =   0.0937500
        k(   18) = (   0.0000000   0.0000000  -0.5000000), wk =   0.0000000
        k(   19) = (   0.2500000  -0.2500000   0.2500000), wk =   0.0312500
        k(   20) = (   0.0000000   0.0000000   0.0000000), wk =   0.0000000
        k(   21) = (  -0.2500000  -0.2500000  -0.2500000), wk =   0.0937500
        k(   22) = (  -0.5000000   0.0000000  -0.5000000), wk =   0.0000000
        k(   23) = (  -0.5000000   0.5000000   0.5000000), wk =   0.0937500
        k(   24) = (  -0.7500000   0.7500000   0.2500000), wk =   0.0000000
        k(   25) = (   0.0000000   0.0000000   0.5000000), wk =   0.0937500
        k(   26) = (  -0.2500000   0.2500000   0.2500000), wk =   0.0000000
        k(   27) = (  -0.7500000   0.7500000   0.2500000), wk =   0.0937500
        k(   28) = (  -1.0000000   1.0000000   0.0000000), wk =   0.0000000
        k(   29) = (  -0.7500000   0.7500000  -0.2500000), wk =   0.0937500
        k(   30) = (  -1.0000000   1.0000000  -0.5000000), wk =   0.0000000
        k(   31) = (  -0.7500000   0.2500000   0.7500000), wk =   0.1875000
        k(   32) = (  -1.0000000   0.5000000   0.5000000), wk =   0.0000000
        k(   33) = (   0.7500000   0.2500000   0.7500000), wk =   0.0937500
        k(   34) = (   0.5000000   0.5000000   0.5000000), wk =   0.0000000
        k(   35) = (   0.7500000  -0.2500000  -0.7500000), wk =   0.1875000
        k(   36) = (   0.5000000   0.0000000  -1.0000000), wk =   0.0000000
        k(   37) = (  -0.5000000   0.5000000   0.0000000), wk =   0.0937500
        k(   38) = (  -0.7500000   0.7500000  -0.2500000), wk =   0.0000000
        k(   39) = (  -0.5000000   0.0000000   0.5000000), wk =   0.1875000
        k(   40) = (  -0.7500000   0.2500000   0.2500000), wk =   0.0000000

     Dense  grid:     3943 G-vectors     FFT dimensions: (  24,  24,  24)

     Estimated max dynamical RAM per process >       0.53 MB

     Estimated total dynamical RAM >       2.12 MB

     The potential is recalculated from file :
     ./tmp/_ph0/silicon.save/charge-density

     Starting wfcs are    8 atomic wfcs

     Band Structure Calculation
     Davidson diagonalization with overlap

     ethr =  1.25E-10,  avg # of iterations =  9.8

     total cpu time spent up to now is        0.6 secs

     End of band structure calculation

          k = 0.0000 0.0000 0.0000 (   531 PWs)   bands (ev):

    -5.6105   6.8997   6.8997   6.8997

          k =-0.2500 0.2500-0.2500 (   507 PWs)   bands (ev):

    -4.7538   2.8019   6.0914   6.0914

          k =-0.2500 0.2500-0.2500 (   507 PWs)   bands (ev):

    -4.7538   2.8019   6.0914   6.0914

          k =-0.5000 0.5000-0.5000 (   502 PWs)   bands (ev):

    -3.0679  -0.4753   5.6373   5.6373

          k = 0.5000-0.5000 0.5000 (   502 PWs)   bands (ev):

    -3.0679  -0.4753   5.6373   5.6373

          k = 0.2500-0.2500 0.2500 (   507 PWs)   bands (ev):

    -4.7538   2.8019   6.0914   6.0914

          k = 0.0000 0.5000 0.0000 (   504 PWs)   bands (ev):

    -4.4543   3.3802   4.8615   4.8615

          k =-0.2500 0.7500-0.2500 (   497 PWs)   bands (ev):

    -2.6826   0.2859   3.0877   4.5343

          k = 0.7500-0.2500 0.7500 (   497 PWs)   bands (ev):

    -2.6826   0.2859   3.0877   4.5343

          k = 0.5000 0.0000 0.5000 (   500 PWs)   bands (ev):

    -3.4132   1.2611   2.8176   5.4859

          k = 0.5000 0.0000 0.5000 (   500 PWs)   bands (ev):

    -3.4132   1.2611   2.8176   5.4859

          k = 0.2500 0.2500 0.2500 (   507 PWs)   bands (ev):

    -4.7538   2.8019   6.0914   6.0914

          k = 0.0000-1.0000 0.0000 (   468 PWs)   bands (ev):

    -1.1778  -1.1778   3.8397   3.8397

          k =-0.2500-0.7500-0.2500 (   497 PWs)   bands (ev):

    -2.6826   0.2859   3.0877   4.5343

          k =-0.5000-1.0000 0.0000 (   488 PWs)   bands (ev):

    -0.9720  -0.9720   2.6835   2.6835

          k =-0.7500-0.7500-0.2500 (   497 PWs)   bands (ev):

    -2.6826   0.2859   3.0877   4.5343

          k = 0.2500-0.2500-0.2500 (   507 PWs)   bands (ev):

    -4.7538   2.8019   6.0914   6.0914

          k = 0.0000 0.0000-0.5000 (   504 PWs)   bands (ev):

    -4.4543   3.3802   4.8615   4.8615

          k = 0.2500-0.2500 0.2500 (   507 PWs)   bands (ev):

    -4.7538   2.8019   6.0914   6.0914

          k = 0.0000 0.0000 0.0000 (   531 PWs)   bands (ev):

    -5.6105   6.8997   6.8997   6.8997

          k =-0.2500-0.2500-0.2500 (   507 PWs)   bands (ev):

    -4.7538   2.8019   6.0914   6.0914

          k =-0.5000 0.0000-0.5000 (   500 PWs)   bands (ev):

    -3.4132   1.2611   2.8176   5.4859

          k =-0.5000 0.5000 0.5000 (   502 PWs)   bands (ev):

    -3.0679  -0.4753   5.6373   5.6373

          k =-0.7500 0.7500 0.2500 (   497 PWs)   bands (ev):

    -2.6826   0.2859   3.0877   4.5343

          k = 0.0000 0.0000 0.5000 (   504 PWs)   bands (ev):

    -4.4543   3.3802   4.8615   4.8615

          k =-0.2500 0.2500 0.2500 (   507 PWs)   bands (ev):

    -4.7538   2.8019   6.0914   6.0914

          k =-0.7500 0.7500 0.2500 (   497 PWs)   bands (ev):

    -2.6826   0.2859   3.0877   4.5343

          k =-1.0000 1.0000 0.0000 (   468 PWs)   bands (ev):

    -1.1778  -1.1778   3.8397   3.8397

          k =-0.7500 0.7500-0.2500 (   497 PWs)   bands (ev):

    -2.6826   0.2859   3.0877   4.5343

          k =-1.0000 1.0000-0.5000 (   504 PWs)   bands (ev):

    -4.4543   3.3802   4.8615   4.8615

          k =-0.7500 0.2500 0.7500 (   497 PWs)   bands (ev):

    -2.6826   0.2859   3.0877   4.5343

          k =-1.0000 0.5000 0.5000 (   500 PWs)   bands (ev):

    -3.4132   1.2611   2.8176   5.4859

          k = 0.7500 0.2500 0.7500 (   497 PWs)   bands (ev):

    -2.6826   0.2859   3.0877   4.5343

          k = 0.5000 0.5000 0.5000 (   502 PWs)   bands (ev):

    -3.0679  -0.4753   5.6373   5.6373

          k = 0.7500-0.2500-0.7500 (   497 PWs)   bands (ev):

    -2.6826   0.2859   3.0877   4.5343

          k = 0.5000 0.0000-1.0000 (   488 PWs)   bands (ev):

    -0.9720  -0.9720   2.6835   2.6835

          k =-0.5000 0.5000 0.0000 (   500 PWs)   bands (ev):

    -3.4132   1.2611   2.8176   5.4859

          k =-0.7500 0.7500-0.2500 (   497 PWs)   bands (ev):

    -2.6826   0.2859   3.0877   4.5343

          k =-0.5000 0.0000 0.5000 (   500 PWs)   bands (ev):

    -3.4132   1.2611   2.8176   5.4859

          k =-0.7500 0.2500 0.2500 (   497 PWs)   bands (ev):

    -2.6826   0.2859   3.0877   4.5343

     highest occupied level (ev):     6.8997

     Writing output data file ./tmp/_ph0/silicon.save/

     Ph                                                                         

     bravais-lattice index     =            2
     lattice parameter (alat)  =      10.0000  a.u.
     unit-cell volume          =     250.0000 (a.u.)^3
     number of atoms/cell      =            2
     number of atomic types    =            1
     kinetic-energy cut-off    =      24.0000  Ry
     charge density cut-off    =      96.0000  Ry
     convergence threshold     =      1.0E-16
     beta                      =       0.7000
     number of iterations used =            4
     Exchange-correlation= PZ
                           (   1   1   0   0   0   0   0)


     celldm(1)=   10.00000  celldm(2)=    0.00000  celldm(3)=    0.00000
     celldm(4)=    0.00000  celldm(5)=    0.00000  celldm(6)=    0.00000

     crystal axes: (cart. coord. in units of alat)
               a(1) = ( -0.5000  0.0000  0.5000 )  
               a(2) = (  0.0000  0.5000  0.5000 )  
               a(3) = ( -0.5000  0.5000  0.0000 )  

     reciprocal axes: (cart. coord. in units 2 pi/alat)
               b(1) = ( -1.0000 -1.0000  1.0000 )  
               b(2) = (  1.0000  1.0000  1.0000 )  
               b(3) = ( -1.0000  1.0000 -1.0000 )  


     Atoms inside the unit cell: 

     Cartesian axes

     site n.  atom      mass           positions (alat units)
        1     Si  28.0860   tau(    1) = (    0.00000    0.00000    0.00000  )
        2     Si  28.0860   tau(    2) = (    0.25000    0.25000    0.25000  )

     Computing dynamical matrix for 
                    q = (  -0.2500000   0.2500000  -0.2500000 )

      6 Sym.Ops. (no q -> -q+G )


     G cutoff =  243.1708  (    986 G-vectors)     FFT grid: ( 24, 24, 24)
     number of k points=    40

     PseudoPot. # 1 for Si read from file:
     ../Si.pz-rrkj.UPF
     MD5 check sum: 884b380b739b48e9cd334294cddc9a8d
     Pseudo is Norm-conserving, Zval =  4.0
     Generated using "atomic" code by A. Dal Corso (espresso distribution)
     Using radial grid of 1141 points,  2 beta functions with: 
                l(1) =   0
                l(2) =   1

     Mode symmetry, C_3v (3m)   point group:


     Atomic displacements:
     There are    4 irreducible representations

     Representation     1      1 modes -  To be done

     Representation     2      1 modes -  To be done

     Representation     3      2 modes -  To be done

     Representation     4      2 modes -  To be done



     Alpha used in Ewald sum =   1.0000
     PHONON       :      6.01s CPU      7.36s WALL



     Representation #   1 mode #   1

     Self-consistent Calculation

      iter #   1 total cpu time :     7.6 secs   av.it.:   5.9
      thresh= 1.000E-02 alpha_mix =  0.700 |ddv_scf|^2 =  1.555E-03

      iter #   2 total cpu time :     7.8 secs   av.it.:   7.7
      thresh= 3.944E-03 alpha_mix =  0.700 |ddv_scf|^2 =  2.199E-02

      iter #   3 total cpu time :     8.0 secs   av.it.:   6.5
      thresh= 1.000E-02 alpha_mix =  0.700 |ddv_scf|^2 =  1.088E-06

      iter #   4 total cpu time :     8.2 secs   av.it.:   8.1
      thresh= 1.043E-04 alpha_mix =  0.700 |ddv_scf|^2 =  8.682E-08

      iter #   5 total cpu time :     8.4 secs   av.it.:   7.6
      thresh= 2.947E-05 alpha_mix =  0.700 |ddv_scf|^2 =  3.332E-10

      iter #   6 total cpu time :     8.6 secs   av.it.:   8.0
      thresh= 1.825E-06 alpha_mix =  0.700 |ddv_scf|^2 =  6.945E-10

      iter #   7 total cpu time :     8.8 secs   av.it.:   6.6
      thresh= 2.635E-06 alpha_mix =  0.700 |ddv_scf|^2 =  2.302E-11

      iter #   8 total cpu time :     9.0 secs   av.it.:   7.7
      thresh= 4.798E-07 alpha_mix =  0.700 |ddv_scf|^2 =  2.874E-13

      iter #   9 total cpu time :     9.3 secs   av.it.:   7.4
      thresh= 5.361E-08 alpha_mix =  0.700 |ddv_scf|^2 =  7.560E-15

      iter #  10 total cpu time :     9.5 secs   av.it.:   7.6
      thresh= 8.695E-09 alpha_mix =  0.700 |ddv_scf|^2 =  4.316E-15

      iter #  11 total cpu time :     9.7 secs   av.it.:   7.3
      thresh= 6.570E-09 alpha_mix =  0.700 |ddv_scf|^2 =  1.271E-16

      iter #  12 total cpu time :     9.9 secs   av.it.:   7.7
      thresh= 1.127E-09 alpha_mix =  0.700 |ddv_scf|^2 =  7.785E-17

     End of self-consistent calculation

     Convergence has been achieved 


     Representation #   2 mode #   2

     Self-consistent Calculation

      iter #   1 total cpu time :    10.1 secs   av.it.:   5.9
      thresh= 1.000E-02 alpha_mix =  0.700 |ddv_scf|^2 =  1.555E-03

      iter #   2 total cpu time :    10.4 secs   av.it.:   7.7
      thresh= 3.943E-03 alpha_mix =  0.700 |ddv_scf|^2 =  2.199E-02

      iter #   3 total cpu time :    10.7 secs   av.it.:   6.5
      thresh= 1.000E-02 alpha_mix =  0.700 |ddv_scf|^2 =  1.084E-06

      iter #   4 total cpu time :    11.0 secs   av.it.:   8.1
      thresh= 1.041E-04 alpha_mix =  0.700 |ddv_scf|^2 =  8.695E-08

      iter #   5 total cpu time :    11.2 secs   av.it.:   7.6
      thresh= 2.949E-05 alpha_mix =  0.700 |ddv_scf|^2 =  3.814E-10

      iter #   6 total cpu time :    11.4 secs   av.it.:   7.8
      thresh= 1.953E-06 alpha_mix =  0.700 |ddv_scf|^2 =  9.592E-10

      iter #   7 total cpu time :    11.6 secs   av.it.:   6.6
      thresh= 3.097E-06 alpha_mix =  0.700 |ddv_scf|^2 =  1.639E-11

      iter #   8 total cpu time :    11.8 secs   av.it.:   7.6
      thresh= 4.049E-07 alpha_mix =  0.700 |ddv_scf|^2 =  2.741E-13

      iter #   9 total cpu time :    12.0 secs   av.it.:   7.4
      thresh= 5.236E-08 alpha_mix =  0.700 |ddv_scf|^2 =  7.671E-15

      iter #  10 total cpu time :    12.3 secs   av.it.:   7.6
      thresh= 8.758E-09 alpha_mix =  0.700 |ddv_scf|^2 =  4.615E-15

      iter #  11 total cpu time :    12.5 secs   av.it.:   7.3
      thresh= 6.794E-09 alpha_mix =  0.700 |ddv_scf|^2 =  1.135E-16

      iter #  12 total cpu time :    12.7 secs   av.it.:   7.8
      thresh= 1.065E-09 alpha_mix =  0.700 |ddv_scf|^2 =  9.592E-17

     End of self-consistent calculation

     Convergence has been achieved 


     Representation #   3 modes #   3   4

     Self-consistent Calculation

      iter #   1 total cpu time :    13.1 secs   av.it.:   5.4
      thresh= 1.000E-02 alpha_mix =  0.700 |ddv_scf|^2 =  3.144E-07

      iter #   2 total cpu time :    13.6 secs   av.it.:   9.7
      thresh= 5.607E-05 alpha_mix =  0.700 |ddv_scf|^2 =  1.874E-08

      iter #   3 total cpu time :    14.1 secs   av.it.:   9.4
      thresh= 1.369E-05 alpha_mix =  0.700 |ddv_scf|^2 =  1.036E-10

      iter #   4 total cpu time :    14.6 secs   av.it.:   9.3
      thresh= 1.018E-06 alpha_mix =  0.700 |ddv_scf|^2 =  6.175E-12

      iter #   5 total cpu time :    15.1 secs   av.it.:   9.3
      thresh= 2.485E-07 alpha_mix =  0.700 |ddv_scf|^2 =  1.078E-14

      iter #   6 total cpu time :    15.7 secs   av.it.:   9.7
      thresh= 1.038E-08 alpha_mix =  0.700 |ddv_scf|^2 =  1.876E-16

      iter #   7 total cpu time :    16.2 secs   av.it.:   9.8
      thresh= 1.370E-09 alpha_mix =  0.700 |ddv_scf|^2 =  1.127E-18

     End of self-consistent calculation

     Convergence has been achieved 


     Representation #   4 modes #   5   6

     Self-consistent Calculation

      iter #   1 total cpu time :    16.5 secs   av.it.:   5.3
      thresh= 1.000E-02 alpha_mix =  0.700 |ddv_scf|^2 =  3.145E-07

      iter #   2 total cpu time :    17.1 secs   av.it.:   9.6
      thresh= 5.608E-05 alpha_mix =  0.700 |ddv_scf|^2 =  1.873E-08

      iter #   3 total cpu time :    17.6 secs   av.it.:   9.3
      thresh= 1.369E-05 alpha_mix =  0.700 |ddv_scf|^2 =  1.035E-10

      iter #   4 total cpu time :    18.1 secs   av.it.:   9.3
      thresh= 1.017E-06 alpha_mix =  0.700 |ddv_scf|^2 =  6.179E-12

      iter #   5 total cpu time :    18.6 secs   av.it.:   9.2
      thresh= 2.486E-07 alpha_mix =  0.700 |ddv_scf|^2 =  1.047E-14

      iter #   6 total cpu time :    19.1 secs   av.it.:   9.7
      thresh= 1.023E-08 alpha_mix =  0.700 |ddv_scf|^2 =  1.885E-16

      iter #   7 total cpu time :    19.7 secs   av.it.:   9.8
      thresh= 1.373E-09 alpha_mix =  0.700 |ddv_scf|^2 =  1.034E-18

     End of self-consistent calculation

     Convergence has been achieved 

     Number of q in the star =    8
     List of q in the star:
          1  -0.250000000   0.250000000  -0.250000000
          2   0.250000000  -0.250000000  -0.250000000
          3   0.250000000  -0.250000000   0.250000000
          4   0.250000000   0.250000000   0.250000000
          5  -0.250000000  -0.250000000  -0.250000000
          6  -0.250000000  -0.250000000   0.250000000
          7  -0.250000000   0.250000000   0.250000000
          8   0.250000000   0.250000000  -0.250000000

     Diagonalizing the dynamical matrix

     q = (   -0.250000000   0.250000000  -0.250000000 ) 

 **************************************************************************
     freq (    1) =       2.608793 [THz] =      87.019959 [cm-1]
     freq (    2) =       2.608793 [THz] =      87.019959 [cm-1]
     freq (    3) =       7.236868 [THz] =     241.395931 [cm-1]
     freq (    4) =      15.536277 [THz] =     518.234423 [cm-1]
     freq (    5) =      15.852975 [THz] =     528.798320 [cm-1]
     freq (    6) =      15.852975 [THz] =     528.798320 [cm-1]
 **************************************************************************

     Mode symmetry, C_3v (3m)   point group:

     freq (   1-   2) =         87.0  [cm-1]   --> E    L_3           
     freq (   3-   3) =        241.4  [cm-1]   --> A_1  L_1           
     freq (   4-   4) =        518.2  [cm-1]   --> A_1  L_1           
     freq (   5-   6) =        528.8  [cm-1]   --> E    L_3           

     Calculation of q =    0.5000000  -0.5000000   0.5000000

     Parallelization info
     --------------------
     sticks:   dense  smooth     PW     G-vecs:    dense   smooth      PW
     Min          82      82     30                  985      985     234
     Max          85      85     31                  986      986     238
     Sum         337     337    121                 3943     3943     941

     Using Slab Decomposition


     Title: 
     Ph                                                                         


     bravais-lattice index     =            2
     lattice parameter (alat)  =      10.0000  a.u.
     unit-cell volume          =     250.0000 (a.u.)^3
     number of atoms/cell      =            2
     number of atomic types    =            1
     number of electrons       =         8.00
     number of Kohn-Sham states=            4
     kinetic-energy cutoff     =      24.0000  Ry
     charge density cutoff     =      96.0000  Ry
     Exchange-correlation= PZ
                           (   1   1   0   0   0   0   0)

     celldm(1)=  10.000000  celldm(2)=   0.000000  celldm(3)=   0.000000
     celldm(4)=   0.000000  celldm(5)=   0.000000  celldm(6)=   0.000000

     crystal axes: (cart. coord. in units of alat)
               a(1) = (  -0.500000   0.000000   0.500000 )  
               a(2) = (   0.000000   0.500000   0.500000 )  
               a(3) = (  -0.500000   0.500000   0.000000 )  

     reciprocal axes: (cart. coord. in units 2 pi/alat)
               b(1) = ( -1.000000 -1.000000  1.000000 )  
               b(2) = (  1.000000  1.000000  1.000000 )  
               b(3) = ( -1.000000  1.000000 -1.000000 )  


     PseudoPot. # 1 for Si read from file:
     ../Si.pz-rrkj.UPF
     MD5 check sum: 884b380b739b48e9cd334294cddc9a8d
     Pseudo is Norm-conserving, Zval =  4.0
     Generated using "atomic" code by A. Dal Corso (espresso distribution)
     Using radial grid of 1141 points,  2 beta functions with: 
                l(1) =   0
                l(2) =   1

     atomic species   valence    mass     pseudopotential
        Si             4.00    28.08600     Si( 1.00)

     48 Sym. Ops., with inversion, found



   Cartesian axes

     site n.     atom                  positions (alat units)
         1           Si  tau(   1) = (   0.0000000   0.0000000   0.0000000  )
         2           Si  tau(   2) = (   0.2500000   0.2500000   0.2500000  )

     number of k points=    26
                       cart. coord. in units 2pi/alat
        k(    1) = (   0.0000000   0.0000000   0.0000000), wk =   0.0312500
        k(    2) = (   0.5000000  -0.5000000   0.5000000), wk =   0.0000000
        k(    3) = (  -0.2500000   0.2500000  -0.2500000), wk =   0.0625000
        k(    4) = (   0.2500000  -0.2500000   0.2500000), wk =   0.0000000
        k(    5) = (   0.5000000  -0.5000000   0.5000000), wk =   0.0312500
        k(    6) = (   1.0000000  -1.0000000   1.0000000), wk =   0.0000000
        k(    7) = (   0.0000000   0.5000000   0.0000000), wk =   0.1875000
        k(    8) = (   0.5000000   0.0000000   0.5000000), wk =   0.0000000
        k(    9) = (   0.7500000  -0.2500000   0.7500000), wk =   0.1875000
        k(   10) = (   1.2500000  -0.7500000   1.2500000), wk =   0.0000000
        k(   11) = (   0.5000000   0.0000000   0.5000000), wk =   0.1875000
        k(   12) = (   1.0000000  -0.5000000   1.0000000), wk =   0.0000000
        k(   13) = (   0.0000000  -1.0000000   0.0000000), wk =   0.0937500
        k(   14) = (   0.5000000  -1.5000000   0.5000000), wk =   0.0000000
        k(   15) = (  -0.5000000  -1.0000000   0.0000000), wk =   0.1875000
        k(   16) = (   0.0000000  -1.5000000   0.5000000), wk =   0.0000000
        k(   17) = (  -0.2500000  -0.2500000  -0.2500000), wk =   0.1875000
        k(   18) = (   0.2500000  -0.7500000   0.2500000), wk =   0.0000000
        k(   19) = (   0.5000000   0.5000000   0.5000000), wk =   0.0937500
        k(   20) = (   1.0000000   0.0000000   1.0000000), wk =   0.0000000
        k(   21) = (   0.7500000   0.2500000   0.7500000), wk =   0.1875000
        k(   22) = (   1.2500000  -0.2500000   1.2500000), wk =   0.0000000
        k(   23) = (  -0.7500000   0.2500000   0.7500000), wk =   0.3750000
        k(   24) = (  -0.2500000  -0.2500000   1.2500000), wk =   0.0000000
        k(   25) = (  -0.5000000   0.0000000   0.5000000), wk =   0.1875000
        k(   26) = (   0.0000000  -0.5000000   1.0000000), wk =   0.0000000

     Dense  grid:     3943 G-vectors     FFT dimensions: (  24,  24,  24)

     Estimated max dynamical RAM per process >       0.53 MB

     Estimated total dynamical RAM >       2.13 MB

     The potential is recalculated from file :
     ./tmp/_ph0/silicon.save/charge-density

     Starting wfcs are    8 atomic wfcs

     Band Structure Calculation
     Davidson diagonalization with overlap

     ethr =  1.25E-10,  avg # of iterations =  9.6

     total cpu time spent up to now is        1.0 secs

     End of band structure calculation

          k = 0.0000 0.0000 0.0000 (   531 PWs)   bands (ev):

    -5.6105   6.8997   6.8997   6.8997

          k = 0.5000-0.5000 0.5000 (   502 PWs)   bands (ev):

    -3.0679  -0.4753   5.6373   5.6373

          k =-0.2500 0.2500-0.2500 (   507 PWs)   bands (ev):

    -4.7538   2.8019   6.0914   6.0914

          k = 0.2500-0.2500 0.2500 (   507 PWs)   bands (ev):

    -4.7538   2.8019   6.0914   6.0914

          k = 0.5000-0.5000 0.5000 (   502 PWs)   bands (ev):

    -3.0679  -0.4753   5.6373   5.6373

          k = 1.0000-1.0000 1.0000 (   531 PWs)   bands (ev):

    -5.6105   6.8997   6.8997   6.8997

          k = 0.0000 0.5000 0.0000 (   504 PWs)   bands (ev):

    -4.4543   3.3802   4.8615   4.8615

          k = 0.5000 0.0000 0.5000 (   500 PWs)   bands (ev):

    -3.4132   1.2611   2.8176   5.4859

          k = 0.7500-0.2500 0.7500 (   497 PWs)   bands (ev):

    -2.6826   0.2859   3.0877   4.5343

          k = 1.2500-0.7500 1.2500 (   507 PWs)   bands (ev):

    -4.7538   2.8019   6.0914   6.0914

          k = 0.5000 0.0000 0.5000 (   500 PWs)   bands (ev):

    -3.4132   1.2611   2.8176   5.4859

          k = 1.0000-0.5000 1.0000 (   504 PWs)   bands (ev):

    -4.4543   3.3802   4.8615   4.8615

          k = 0.0000-1.0000 0.0000 (   468 PWs)   bands (ev):

    -1.1778  -1.1778   3.8397   3.8397

          k = 0.5000-1.5000 0.5000 (   502 PWs)   bands (ev):

    -3.0679  -0.4753   5.6373   5.6373

          k =-0.5000-1.0000 0.0000 (   488 PWs)   bands (ev):

    -0.9720  -0.9720   2.6835   2.6835

          k = 0.0000-1.5000 0.5000 (   500 PWs)   bands (ev):

    -3.4132   1.2611   2.8176   5.4859

          k =-0.2500-0.2500-0.2500 (   507 PWs)   bands (ev):

    -4.7538   2.8019   6.0914   6.0914

          k = 0.2500-0.7500 0.2500 (   497 PWs)   bands (ev):

    -2.6826   0.2859   3.0877   4.5343

          k = 0.5000 0.5000 0.5000 (   502 PWs)   bands (ev):

    -3.0679  -0.4753   5.6373   5.6373

          k = 1.0000 0.0000 1.0000 (   468 PWs)   bands (ev):

    -1.1778  -1.1778   3.8397   3.8397

          k = 0.7500 0.2500 0.7500 (   497 PWs)   bands (ev):

    -2.6826   0.2859   3.0877   4.5343

          k = 1.2500-0.2500 1.2500 (   497 PWs)   bands (ev):

    -2.6826   0.2859   3.0877   4.5343

          k =-0.7500 0.2500 0.7500 (   497 PWs)   bands (ev):

    -2.6826   0.2859   3.0877   4.5343

          k =-0.2500-0.2500 1.2500 (   497 PWs)   bands (ev):

    -2.6826   0.2859   3.0877   4.5343

          k =-0.5000 0.0000 0.5000 (   500 PWs)   bands (ev):

    -3.4132   1.2611   2.8176   5.4859

          k = 0.0000-0.5000 1.0000 (   488 PWs)   bands (ev):

    -0.9720  -0.9720   2.6835   2.6835

     highest occupied level (ev):     6.8997

     Writing output data file ./tmp/_ph0/silicon.save/

     Ph                                                                         

     bravais-lattice index     =            2
     lattice parameter (alat)  =      10.0000  a.u.
     unit-cell volume          =     250.0000 (a.u.)^3
     number of atoms/cell      =            2
     number of atomic types    =            1
     kinetic-energy cut-off    =      24.0000  Ry
     charge density cut-off    =      96.0000  Ry
     convergence threshold     =      1.0E-16
     beta                      =       0.7000
     number of iterations used =            4
     Exchange-correlation= PZ
                           (   1   1   0   0   0   0   0)


     celldm(1)=   10.00000  celldm(2)=    0.00000  celldm(3)=    0.00000
     celldm(4)=    0.00000  celldm(5)=    0.00000  celldm(6)=    0.00000

     crystal axes: (cart. coord. in units of alat)
               a(1) = ( -0.5000  0.0000  0.5000 )  
               a(2) = (  0.0000  0.5000  0.5000 )  
               a(3) = ( -0.5000  0.5000  0.0000 )  

     reciprocal axes: (cart. coord. in units 2 pi/alat)
               b(1) = ( -1.0000 -1.0000  1.0000 )  
               b(2) = (  1.0000  1.0000  1.0000 )  
               b(3) = ( -1.0000  1.0000 -1.0000 )  


     Atoms inside the unit cell: 

     Cartesian axes

     site n.  atom      mass           positions (alat units)
        1     Si  28.0860   tau(    1) = (    0.00000    0.00000    0.00000  )
        2     Si  28.0860   tau(    2) = (    0.25000    0.25000    0.25000  )

     Computing dynamical matrix for 
                    q = (   0.5000000  -0.5000000   0.5000000 )

     13 Sym.Ops. (with q -> -q+G )


     G cutoff =  243.1708  (    986 G-vectors)     FFT grid: ( 24, 24, 24)
     number of k points=    26

     PseudoPot. # 1 for Si read from file:
     ../Si.pz-rrkj.UPF
     MD5 check sum: 884b380b739b48e9cd334294cddc9a8d
     Pseudo is Norm-conserving, Zval =  4.0
     Generated using "atomic" code by A. Dal Corso (espresso distribution)
     Using radial grid of 1141 points,  2 beta functions with: 
                l(1) =   0
                l(2) =   1


     Atomic displacements:
     There are    4 irreducible representations

     Representation     1      1 modes -  To be done

     Representation     2      1 modes -  To be done

     Representation     3      2 modes -  To be done

     Representation     4      2 modes -  To be done



     Alpha used in Ewald sum =   1.0000
     PHONON       :     16.35s CPU     20.12s WALL



     Representation #   1 mode #   1

     Self-consistent Calculation

      iter #   1 total cpu time :    20.3 secs   av.it.:   5.1
      thresh= 1.000E-02 alpha_mix =  0.700 |ddv_scf|^2 =  1.426E-05

      iter #   2 total cpu time :    20.5 secs   av.it.:   7.7
      thresh= 3.776E-04 alpha_mix =  0.700 |ddv_scf|^2 =  1.093E-05

      iter #   3 total cpu time :    20.6 secs   av.it.:   7.2
      thresh= 3.306E-04 alpha_mix =  0.700 |ddv_scf|^2 =  1.016E-09

      iter #   4 total cpu time :    20.7 secs   av.it.:   7.3
      thresh= 3.187E-06 alpha_mix =  0.700 |ddv_scf|^2 =  2.055E-11

      iter #   5 total cpu time :    20.9 secs   av.it.:   7.2
      thresh= 4.534E-07 alpha_mix =  0.700 |ddv_scf|^2 =  9.970E-14

      iter #   6 total cpu time :    21.1 secs   av.it.:   7.2
      thresh= 3.158E-08 alpha_mix =  0.700 |ddv_scf|^2 =  2.232E-15

      iter #   7 total cpu time :    21.2 secs   av.it.:   7.5
      thresh= 4.725E-09 alpha_mix =  0.700 |ddv_scf|^2 =  5.023E-18

     End of self-consistent calculation

     Convergence has been achieved 


     Representation #   2 mode #   2

     Self-consistent Calculation

      iter #   1 total cpu time :    21.4 secs   av.it.:   5.8
      thresh= 1.000E-02 alpha_mix =  0.700 |ddv_scf|^2 =  2.578E-04

      iter #   2 total cpu time :    21.5 secs   av.it.:   8.1
      thresh= 1.606E-03 alpha_mix =  0.700 |ddv_scf|^2 =  8.782E-04

      iter #   3 total cpu time :    21.7 secs   av.it.:   7.1
      thresh= 2.963E-03 alpha_mix =  0.700 |ddv_scf|^2 =  1.319E-08

      iter #   4 total cpu time :    21.8 secs   av.it.:   8.3
      thresh= 1.148E-05 alpha_mix =  0.700 |ddv_scf|^2 =  4.537E-10

      iter #   5 total cpu time :    22.0 secs   av.it.:   8.3
      thresh= 2.130E-06 alpha_mix =  0.700 |ddv_scf|^2 =  4.830E-11

      iter #   6 total cpu time :    22.1 secs   av.it.:   7.6
      thresh= 6.950E-07 alpha_mix =  0.700 |ddv_scf|^2 =  2.647E-14

      iter #   7 total cpu time :    22.3 secs   av.it.:   7.6
      thresh= 1.627E-08 alpha_mix =  0.700 |ddv_scf|^2 =  3.014E-15

      iter #   8 total cpu time :    22.4 secs   av.it.:   7.7
      thresh= 5.490E-09 alpha_mix =  0.700 |ddv_scf|^2 =  2.689E-16

      iter #   9 total cpu time :    22.6 secs   av.it.:   7.4
      thresh= 1.640E-09 alpha_mix =  0.700 |ddv_scf|^2 =  9.688E-20

     End of self-consistent calculation

     Convergence has been achieved 


     Representation #   3 modes #   3   4

     Self-consistent Calculation

      iter #   1 total cpu time :    22.8 secs   av.it.:   5.1
      thresh= 1.000E-02 alpha_mix =  0.700 |ddv_scf|^2 =  7.209E-07

      iter #   2 total cpu time :    23.2 secs   av.it.:   9.0
      thresh= 8.490E-05 alpha_mix =  0.700 |ddv_scf|^2 =  6.639E-08

      iter #   3 total cpu time :    23.5 secs   av.it.:   8.8
      thresh= 2.577E-05 alpha_mix =  0.700 |ddv_scf|^2 =  9.493E-11

      iter #   4 total cpu time :    23.8 secs   av.it.:   8.4
      thresh= 9.743E-07 alpha_mix =  0.700 |ddv_scf|^2 =  2.613E-13

      iter #   5 total cpu time :    24.1 secs   av.it.:   8.8
      thresh= 5.112E-08 alpha_mix =  0.700 |ddv_scf|^2 =  1.005E-15

      iter #   6 total cpu time :    24.5 secs   av.it.:   9.0
      thresh= 3.171E-09 alpha_mix =  0.700 |ddv_scf|^2 =  2.255E-17

     End of self-consistent calculation

     Convergence has been achieved 


     Representation #   4 modes #   5   6

     Self-consistent Calculation

      iter #   1 total cpu time :    24.7 secs   av.it.:   4.9
      thresh= 1.000E-02 alpha_mix =  0.700 |ddv_scf|^2 =  8.098E-08

      iter #   2 total cpu time :    25.1 secs   av.it.:   9.1
      thresh= 2.846E-05 alpha_mix =  0.700 |ddv_scf|^2 =  1.801E-09

      iter #   3 total cpu time :    25.4 secs   av.it.:   8.9
      thresh= 4.244E-06 alpha_mix =  0.700 |ddv_scf|^2 =  6.579E-11

      iter #   4 total cpu time :    25.7 secs   av.it.:   8.9
      thresh= 8.111E-07 alpha_mix =  0.700 |ddv_scf|^2 =  8.835E-14

      iter #   5 total cpu time :    26.1 secs   av.it.:   9.3
      thresh= 2.972E-08 alpha_mix =  0.700 |ddv_scf|^2 =  1.234E-15

      iter #   6 total cpu time :    26.4 secs   av.it.:   9.3
      thresh= 3.513E-09 alpha_mix =  0.700 |ddv_scf|^2 =  8.059E-18

     End of self-consistent calculation

     Convergence has been achieved 

     Number of q in the star =    4
     List of q in the star:
          1   0.500000000  -0.500000000   0.500000000
          2   0.500000000   0.500000000   0.500000000
          3  -0.500000000   0.500000000   0.500000000
          4   0.500000000   0.500000000  -0.500000000

     Diagonalizing the dynamical matrix

     q = (    0.500000000  -0.500000000   0.500000000 ) 

 **************************************************************************
     freq (    1) =       2.559607 [THz] =      85.379291 [cm-1]
     freq (    2) =       2.559607 [THz] =      85.379291 [cm-1]
     freq (    3) =      11.670565 [THz] =     389.288155 [cm-1]
     freq (    4) =      13.163500 [THz] =     439.087101 [cm-1]
     freq (    5) =      15.597178 [THz] =     520.265850 [cm-1]
     freq (    6) =      15.597178 [THz] =     520.265850 [cm-1]
 **************************************************************************

     Calculation of q =    0.0000000   0.5000000   0.0000000

     Parallelization info
     --------------------
     sticks:   dense  smooth     PW     G-vecs:    dense   smooth      PW
     Min          82      82     30                  985      985     216
     Max          85      85     31                  986      986     218
     Sum         337     337    121                 3943     3943     869

     Using Slab Decomposition


     Title: 
     Ph                                                                         


     bravais-lattice index     =            2
     lattice parameter (alat)  =      10.0000  a.u.
     unit-cell volume          =     250.0000 (a.u.)^3
     number of atoms/cell      =            2
     number of atomic types    =            1
     number of electrons       =         8.00
     number of Kohn-Sham states=            4
     kinetic-energy cutoff     =      24.0000  Ry
     charge density cutoff     =      96.0000  Ry
     Exchange-correlation= PZ
                           (   1   1   0   0   0   0   0)

     celldm(1)=  10.000000  celldm(2)=   0.000000  celldm(3)=   0.000000
     celldm(4)=   0.000000  celldm(5)=   0.000000  celldm(6)=   0.000000

     crystal axes: (cart. coord. in units of alat)
               a(1) = (  -0.500000   0.000000   0.500000 )  
               a(2) = (   0.000000   0.500000   0.500000 )  
               a(3) = (  -0.500000   0.500000   0.000000 )  

     reciprocal axes: (cart. coord. in units 2 pi/alat)
               b(1) = ( -1.000000 -1.000000  1.000000 )  
               b(2) = (  1.000000  1.000000  1.000000 )  
               b(3) = ( -1.000000  1.000000 -1.000000 )  


     PseudoPot. # 1 for Si read from file:
     ../Si.pz-rrkj.UPF
     MD5 check sum: 884b380b739b48e9cd334294cddc9a8d
     Pseudo is Norm-conserving, Zval =  4.0
     Generated using "atomic" code by A. Dal Corso (espresso distribution)
     Using radial grid of 1141 points,  2 beta functions with: 
                l(1) =   0
                l(2) =   1

     atomic species   valence    mass     pseudopotential
        Si             4.00    28.08600     Si( 1.00)

     48 Sym. Ops., with inversion, found



   Cartesian axes

     site n.     atom                  positions (alat units)
         1           Si  tau(   1) = (   0.0000000   0.0000000   0.0000000  )
         2           Si  tau(   2) = (   0.2500000   0.2500000   0.2500000  )

     number of k points=    36
                       cart. coord. in units 2pi/alat
        k(    1) = (   0.0000000   0.0000000   0.0000000), wk =   0.0312500
        k(    2) = (   0.0000000   0.5000000   0.0000000), wk =   0.0000000
        k(    3) = (  -0.2500000   0.2500000  -0.2500000), wk =   0.1250000
        k(    4) = (  -0.2500000   0.7500000  -0.2500000), wk =   0.0000000
        k(    5) = (   0.5000000  -0.5000000   0.5000000), wk =   0.1250000
        k(    6) = (   0.5000000   0.0000000   0.5000000), wk =   0.0000000
        k(    7) = (   0.0000000   0.5000000   0.0000000), wk =   0.0312500
        k(    8) = (   0.0000000   1.0000000   0.0000000), wk =   0.0000000
        k(    9) = (   0.7500000  -0.2500000   0.7500000), wk =   0.1250000
        k(   10) = (   0.7500000   0.2500000   0.7500000), wk =   0.0000000
        k(   11) = (   0.5000000   0.0000000   0.5000000), wk =   0.1250000
        k(   12) = (   0.5000000   0.5000000   0.5000000), wk =   0.0000000
        k(   13) = (   0.0000000  -1.0000000   0.0000000), wk =   0.0312500
        k(   14) = (   0.0000000  -0.5000000   0.0000000), wk =   0.0000000
        k(   15) = (  -0.5000000  -1.0000000   0.0000000), wk =   0.1250000
        k(   16) = (  -0.5000000  -0.5000000   0.0000000), wk =   0.0000000
        k(   17) = (   0.2500000  -0.2500000   0.2500000), wk =   0.1250000
        k(   18) = (   0.2500000   0.2500000   0.2500000), wk =   0.0000000
        k(   19) = (   0.0000000  -0.5000000   0.0000000), wk =   0.0312500
        k(   20) = (   0.0000000   0.0000000   0.0000000), wk =   0.0000000
        k(   21) = (   0.5000000   0.0000000   0.0000000), wk =   0.1250000
        k(   22) = (   0.5000000   0.5000000   0.0000000), wk =   0.0000000
        k(   23) = (  -0.7500000   0.2500000  -0.7500000), wk =   0.1250000
        k(   24) = (  -0.7500000   0.7500000  -0.7500000), wk =   0.0000000
        k(   25) = (  -0.2500000   0.7500000  -0.7500000), wk =   0.2500000
        k(   26) = (  -0.2500000   1.2500000  -0.7500000), wk =   0.0000000
        k(   27) = (  -0.2500000  -0.7500000  -0.7500000), wk =   0.2500000
        k(   28) = (  -0.2500000  -0.2500000  -0.7500000), wk =   0.0000000
        k(   29) = (   0.0000000   0.5000000  -0.5000000), wk =   0.1250000
        k(   30) = (   0.0000000   1.0000000  -0.5000000), wk =   0.0000000
        k(   31) = (   0.0000000  -0.5000000  -0.5000000), wk =   0.1250000
        k(   32) = (   0.0000000   0.0000000  -0.5000000), wk =   0.0000000
        k(   33) = (  -1.0000000   0.0000000   0.0000000), wk =   0.0625000
        k(   34) = (  -1.0000000   0.5000000   0.0000000), wk =   0.0000000
        k(   35) = (  -1.0000000  -0.5000000   0.0000000), wk =   0.0625000
        k(   36) = (  -1.0000000   0.0000000   0.0000000), wk =   0.0000000

     Dense  grid:     3943 G-vectors     FFT dimensions: (  24,  24,  24)

     Estimated max dynamical RAM per process >       0.53 MB

     Estimated total dynamical RAM >       2.12 MB

     The potential is recalculated from file :
     ./tmp/_ph0/silicon.save/charge-density

     Starting wfcs are    8 atomic wfcs

     Band Structure Calculation
     Davidson diagonalization with overlap

     ethr =  1.25E-10,  avg # of iterations =  9.7

     total cpu time spent up to now is        1.5 secs

     End of band structure calculation

          k = 0.0000 0.0000 0.0000 (   531 PWs)   bands (ev):

    -5.6105   6.8997   6.8997   6.8997

          k = 0.0000 0.5000 0.0000 (   504 PWs)   bands (ev):

    -4.4543   3.3802   4.8615   4.8615

          k =-0.2500 0.2500-0.2500 (   507 PWs)   bands (ev):

    -4.7538   2.8019   6.0914   6.0914

          k =-0.2500 0.7500-0.2500 (   497 PWs)   bands (ev):

    -2.6826   0.2859   3.0877   4.5343

          k = 0.5000-0.5000 0.5000 (   502 PWs)   bands (ev):

    -3.0679  -0.4753   5.6373   5.6373

          k = 0.5000 0.0000 0.5000 (   500 PWs)   bands (ev):

    -3.4132   1.2611   2.8176   5.4859

          k = 0.0000 0.5000 0.0000 (   504 PWs)   bands (ev):

    -4.4543   3.3802   4.8615   4.8615

          k = 0.0000 1.0000 0.0000 (   468 PWs)   bands (ev):

    -1.1778  -1.1778   3.8397   3.8397

          k = 0.7500-0.2500 0.7500 (   497 PWs)   bands (ev):

    -2.6826   0.2859   3.0877   4.5343

          k = 0.7500 0.2500 0.7500 (   497 PWs)   bands (ev):

    -2.6826   0.2859   3.0877   4.5343

          k = 0.5000 0.0000 0.5000 (   500 PWs)   bands (ev):

    -3.4132   1.2611   2.8176   5.4859

          k = 0.5000 0.5000 0.5000 (   502 PWs)   bands (ev):

    -3.0679  -0.4753   5.6373   5.6373

          k = 0.0000-1.0000 0.0000 (   468 PWs)   bands (ev):

    -1.1778  -1.1778   3.8397   3.8397

          k = 0.0000-0.5000 0.0000 (   504 PWs)   bands (ev):

    -4.4543   3.3802   4.8615   4.8615

          k =-0.5000-1.0000 0.0000 (   488 PWs)   bands (ev):

    -0.9720  -0.9720   2.6835   2.6835

          k =-0.5000-0.5000 0.0000 (   500 PWs)   bands (ev):

    -3.4132   1.2611   2.8176   5.4859

          k = 0.2500-0.2500 0.2500 (   507 PWs)   bands (ev):

    -4.7538   2.8019   6.0914   6.0914

          k = 0.2500 0.2500 0.2500 (   507 PWs)   bands (ev):

    -4.7538   2.8019   6.0914   6.0914

          k = 0.0000-0.5000 0.0000 (   504 PWs)   bands (ev):

    -4.4543   3.3802   4.8615   4.8615

          k = 0.0000 0.0000 0.0000 (   531 PWs)   bands (ev):

    -5.6105   6.8997   6.8997   6.8997

          k = 0.5000 0.0000 0.0000 (   504 PWs)   bands (ev):

    -4.4543   3.3802   4.8615   4.8615

          k = 0.5000 0.5000 0.0000 (   500 PWs)   bands (ev):

    -3.4132   1.2611   2.8176   5.4859

          k =-0.7500 0.2500-0.7500 (   497 PWs)   bands (ev):

    -2.6826   0.2859   3.0877   4.5343

          k =-0.7500 0.7500-0.7500 (   507 PWs)   bands (ev):

    -4.7538   2.8019   6.0914   6.0914

          k =-0.2500 0.7500-0.7500 (   497 PWs)   bands (ev):

    -2.6826   0.2859   3.0877   4.5343

          k =-0.2500 1.2500-0.7500 (   497 PWs)   bands (ev):

    -2.6826   0.2859   3.0877   4.5343

          k =-0.2500-0.7500-0.7500 (   497 PWs)   bands (ev):

    -2.6826   0.2859   3.0877   4.5343

          k =-0.2500-0.2500-0.7500 (   497 PWs)   bands (ev):

    -2.6826   0.2859   3.0877   4.5343

          k = 0.0000 0.5000-0.5000 (   500 PWs)   bands (ev):

    -3.4132   1.2611   2.8176   5.4859

          k = 0.0000 1.0000-0.5000 (   488 PWs)   bands (ev):

    -0.9720  -0.9720   2.6835   2.6835

          k = 0.0000-0.5000-0.5000 (   500 PWs)   bands (ev):

    -3.4132   1.2611   2.8176   5.4859

          k = 0.0000 0.0000-0.5000 (   504 PWs)   bands (ev):

    -4.4543   3.3802   4.8615   4.8615

          k =-1.0000 0.0000 0.0000 (   468 PWs)   bands (ev):

    -1.1778  -1.1778   3.8397   3.8397

          k =-1.0000 0.5000 0.0000 (   488 PWs)   bands (ev):

    -0.9720  -0.9720   2.6835   2.6835

          k =-1.0000-0.5000 0.0000 (   488 PWs)   bands (ev):

    -0.9720  -0.9720   2.6835   2.6835

          k =-1.0000 0.0000 0.0000 (   468 PWs)   bands (ev):

    -1.1778  -1.1778   3.8397   3.8397

     highest occupied level (ev):     6.8997

     Writing output data file ./tmp/_ph0/silicon.save/

     Ph                                                                         

     bravais-lattice index     =            2
     lattice parameter (alat)  =      10.0000  a.u.
     unit-cell volume          =     250.0000 (a.u.)^3
     number of atoms/cell      =            2
     number of atomic types    =            1
     kinetic-energy cut-off    =      24.0000  Ry
     charge density cut-off    =      96.0000  Ry
     convergence threshold     =      1.0E-16
     beta                      =       0.7000
     number of iterations used =            4
     Exchange-correlation= PZ
                           (   1   1   0   0   0   0   0)


     celldm(1)=   10.00000  celldm(2)=    0.00000  celldm(3)=    0.00000
     celldm(4)=    0.00000  celldm(5)=    0.00000  celldm(6)=    0.00000

     crystal axes: (cart. coord. in units of alat)
               a(1) = ( -0.5000  0.0000  0.5000 )  
               a(2) = (  0.0000  0.5000  0.5000 )  
               a(3) = ( -0.5000  0.5000  0.0000 )  

     reciprocal axes: (cart. coord. in units 2 pi/alat)
               b(1) = ( -1.0000 -1.0000  1.0000 )  
               b(2) = (  1.0000  1.0000  1.0000 )  
               b(3) = ( -1.0000  1.0000 -1.0000 )  


     Atoms inside the unit cell: 

     Cartesian axes

     site n.  atom      mass           positions (alat units)
        1     Si  28.0860   tau(    1) = (    0.00000    0.00000    0.00000  )
        2     Si  28.0860   tau(    2) = (    0.25000    0.25000    0.25000  )

     Computing dynamical matrix for 
                    q = (   0.0000000   0.5000000   0.0000000 )

      8 Sym.Ops. (no q -> -q+G )


     G cutoff =  243.1708  (    986 G-vectors)     FFT grid: ( 24, 24, 24)
     number of k points=    36

     PseudoPot. # 1 for Si read from file:
     ../Si.pz-rrkj.UPF
     MD5 check sum: 884b380b739b48e9cd334294cddc9a8d
     Pseudo is Norm-conserving, Zval =  4.0
     Generated using "atomic" code by A. Dal Corso (espresso distribution)
     Using radial grid of 1141 points,  2 beta functions with: 
                l(1) =   0
                l(2) =   1

     Mode symmetry, C_4v (4mm)  point group:


     Atomic displacements:
     There are    4 irreducible representations

     Representation     1      1 modes -  To be done

     Representation     2      1 modes -  To be done

     Representation     3      2 modes -  To be done

     Representation     4      2 modes -  To be done



     Alpha used in Ewald sum =   1.0000
     PHONON       :     22.31s CPU     27.00s WALL



     Representation #   1 mode #   1

     Self-consistent Calculation

      iter #   1 total cpu time :    27.2 secs   av.it.:   5.7
      thresh= 1.000E-02 alpha_mix =  0.700 |ddv_scf|^2 =  1.818E-03

      iter #   2 total cpu time :    27.4 secs   av.it.:   7.5
      thresh= 4.263E-03 alpha_mix =  0.700 |ddv_scf|^2 =  2.156E-02

      iter #   3 total cpu time :    27.6 secs   av.it.:   6.4
      thresh= 1.000E-02 alpha_mix =  0.700 |ddv_scf|^2 =  1.972E-08

      iter #   4 total cpu time :    27.8 secs   av.it.:   8.2
      thresh= 1.404E-05 alpha_mix =  0.700 |ddv_scf|^2 =  1.206E-09

      iter #   5 total cpu time :    28.0 secs   av.it.:   7.8
      thresh= 3.472E-06 alpha_mix =  0.700 |ddv_scf|^2 =  2.845E-11

      iter #   6 total cpu time :    28.2 secs   av.it.:   7.3
      thresh= 5.333E-07 alpha_mix =  0.700 |ddv_scf|^2 =  9.351E-13

      iter #   7 total cpu time :    28.3 secs   av.it.:   6.5
      thresh= 9.670E-08 alpha_mix =  0.700 |ddv_scf|^2 =  2.350E-15

      iter #   8 total cpu time :    28.5 secs   av.it.:   7.4
      thresh= 4.847E-09 alpha_mix =  0.700 |ddv_scf|^2 =  5.656E-18

     End of self-consistent calculation

     Convergence has been achieved 


     Representation #   2 mode #   2

     Self-consistent Calculation

      iter #   1 total cpu time :    28.7 secs   av.it.:   5.3
      thresh= 1.000E-02 alpha_mix =  0.700 |ddv_scf|^2 =  3.343E-06

      iter #   2 total cpu time :    28.9 secs   av.it.:   8.3
      thresh= 1.828E-04 alpha_mix =  0.700 |ddv_scf|^2 =  6.852E-07

      iter #   3 total cpu time :    29.2 secs   av.it.:   8.1
      thresh= 8.278E-05 alpha_mix =  0.700 |ddv_scf|^2 =  2.258E-09

      iter #   4 total cpu time :    29.4 secs   av.it.:   8.2
      thresh= 4.752E-06 alpha_mix =  0.700 |ddv_scf|^2 =  8.169E-11

      iter #   5 total cpu time :    29.6 secs   av.it.:   7.7
      thresh= 9.038E-07 alpha_mix =  0.700 |ddv_scf|^2 =  1.084E-12

      iter #   6 total cpu time :    29.8 secs   av.it.:   7.4
      thresh= 1.041E-07 alpha_mix =  0.700 |ddv_scf|^2 =  6.243E-16

      iter #   7 total cpu time :    30.0 secs   av.it.:   8.4
      thresh= 2.499E-09 alpha_mix =  0.700 |ddv_scf|^2 =  2.190E-17

     End of self-consistent calculation

     Convergence has been achieved 


     Representation #   3 modes #   3   4

     Self-consistent Calculation

      iter #   1 total cpu time :    30.3 secs   av.it.:   5.5
      thresh= 1.000E-02 alpha_mix =  0.700 |ddv_scf|^2 =  7.963E-07

      iter #   2 total cpu time :    30.8 secs   av.it.:   9.3
      thresh= 8.924E-05 alpha_mix =  0.700 |ddv_scf|^2 =  1.356E-07

      iter #   3 total cpu time :    31.3 secs   av.it.:   9.0
      thresh= 3.682E-05 alpha_mix =  0.700 |ddv_scf|^2 =  1.258E-10

      iter #   4 total cpu time :    31.8 secs   av.it.:   8.8
      thresh= 1.122E-06 alpha_mix =  0.700 |ddv_scf|^2 =  5.846E-12

      iter #   5 total cpu time :    32.3 secs   av.it.:   8.6
      thresh= 2.418E-07 alpha_mix =  0.700 |ddv_scf|^2 =  5.663E-15

      iter #   6 total cpu time :    32.8 secs   av.it.:   9.6
      thresh= 7.525E-09 alpha_mix =  0.700 |ddv_scf|^2 =  2.007E-17

     End of self-consistent calculation

     Convergence has been achieved 


     Representation #   4 modes #   5   6

     Self-consistent Calculation

      iter #   1 total cpu time :    33.2 secs   av.it.:   5.4
      thresh= 1.000E-02 alpha_mix =  0.700 |ddv_scf|^2 =  5.249E-07

      iter #   2 total cpu time :    33.7 secs   av.it.:   9.2
      thresh= 7.245E-05 alpha_mix =  0.700 |ddv_scf|^2 =  8.729E-08

      iter #   3 total cpu time :    34.1 secs   av.it.:   8.9
      thresh= 2.954E-05 alpha_mix =  0.700 |ddv_scf|^2 =  1.323E-10

      iter #   4 total cpu time :    34.6 secs   av.it.:   8.7
      thresh= 1.150E-06 alpha_mix =  0.700 |ddv_scf|^2 =  6.617E-12

      iter #   5 total cpu time :    35.1 secs   av.it.:   8.5
      thresh= 2.572E-07 alpha_mix =  0.700 |ddv_scf|^2 =  6.804E-15

      iter #   6 total cpu time :    35.7 secs   av.it.:   9.5
      thresh= 8.249E-09 alpha_mix =  0.700 |ddv_scf|^2 =  2.276E-17

     End of self-consistent calculation

     Convergence has been achieved 

     Number of q in the star =    6
     List of q in the star:
          1   0.000000000   0.500000000   0.000000000
          2   0.000000000  -0.500000000   0.000000000
          3   0.500000000   0.000000000   0.000000000
          4   0.000000000   0.000000000   0.500000000
          5   0.000000000   0.000000000  -0.500000000
          6  -0.500000000   0.000000000   0.000000000

     Diagonalizing the dynamical matrix

     q = (    0.000000000   0.500000000   0.000000000 ) 

 **************************************************************************
     freq (    1) =       3.566286 [THz] =     118.958483 [cm-1]
     freq (    2) =       3.566286 [THz] =     118.958483 [cm-1]
     freq (    3) =       7.610809 [THz] =     253.869248 [cm-1]
     freq (    4) =      15.238267 [THz] =     508.293862 [cm-1]
     freq (    5) =      15.238267 [THz] =     508.293862 [cm-1]
     freq (    6) =      15.745035 [THz] =     525.197827 [cm-1]
 **************************************************************************

     Mode symmetry, C_4v (4mm)  point group:

     freq (   1-   2) =        119.0  [cm-1]   --> E    G_5 D_5       
     freq (   3-   3) =        253.9  [cm-1]   --> A_1  G_1 D_1       
     freq (   4-   5) =        508.3  [cm-1]   --> E    G_5 D_5       
     freq (   6-   6) =        525.2  [cm-1]   --> B_2  G_4 D_2'      

     Calculation of q =    0.7500000  -0.2500000   0.7500000

     Parallelization info
     --------------------
     sticks:   dense  smooth     PW     G-vecs:    dense   smooth      PW
     Min          82      82     34                  985      985     259
     Max          85      85     35                  986      986     260
     Sum         337     337    139                 3943     3943    1037

     Using Slab Decomposition


     Title: 
     Ph                                                                         


     bravais-lattice index     =            2
     lattice parameter (alat)  =      10.0000  a.u.
     unit-cell volume          =     250.0000 (a.u.)^3
     number of atoms/cell      =            2
     number of atomic types    =            1
     number of electrons       =         8.00
     number of Kohn-Sham states=            4
     kinetic-energy cutoff     =      24.0000  Ry
     charge density cutoff     =      96.0000  Ry
     Exchange-correlation= PZ
                           (   1   1   0   0   0   0   0)

     celldm(1)=  10.000000  celldm(2)=   0.000000  celldm(3)=   0.000000
     celldm(4)=   0.000000  celldm(5)=   0.000000  celldm(6)=   0.000000

     crystal axes: (cart. coord. in units of alat)
               a(1) = (  -0.500000   0.000000   0.500000 )  
               a(2) = (   0.000000   0.500000   0.500000 )  
               a(3) = (  -0.500000   0.500000   0.000000 )  

     reciprocal axes: (cart. coord. in units 2 pi/alat)
               b(1) = ( -1.000000 -1.000000  1.000000 )  
               b(2) = (  1.000000  1.000000  1.000000 )  
               b(3) = ( -1.000000  1.000000 -1.000000 )  


     PseudoPot. # 1 for Si read from file:
     ../Si.pz-rrkj.UPF
     MD5 check sum: 884b380b739b48e9cd334294cddc9a8d
     Pseudo is Norm-conserving, Zval =  4.0
     Generated using "atomic" code by A. Dal Corso (espresso distribution)
     Using radial grid of 1141 points,  2 beta functions with: 
                l(1) =   0
                l(2) =   1

     atomic species   valence    mass     pseudopotential
        Si             4.00    28.08600     Si( 1.00)

     48 Sym. Ops., with inversion, found



   Cartesian axes

     site n.     atom                  positions (alat units)
         1           Si  tau(   1) = (   0.0000000   0.0000000   0.0000000  )
         2           Si  tau(   2) = (   0.2500000   0.2500000   0.2500000  )

     number of k points=    80
                       cart. coord. in units 2pi/alat
        k(    1) = (   0.0000000   0.0000000   0.0000000), wk =   0.0312500
        k(    2) = (   0.7500000  -0.2500000   0.7500000), wk =   0.0000000
        k(    3) = (  -0.2500000   0.2500000  -0.2500000), wk =   0.0312500
        k(    4) = (   0.5000000   0.0000000   0.5000000), wk =   0.0000000
        k(    5) = (   0.5000000  -0.5000000   0.5000000), wk =   0.0312500
        k(    6) = (   1.2500000  -0.7500000   1.2500000), wk =   0.0000000
        k(    7) = (   0.0000000   0.5000000   0.0000000), wk =   0.0312500
        k(    8) = (   0.7500000   0.2500000   0.7500000), wk =   0.0000000
        k(    9) = (   0.7500000  -0.2500000   0.7500000), wk =   0.0312500
        k(   10) = (   1.5000000  -0.5000000   1.5000000), wk =   0.0000000
        k(   11) = (   0.5000000   0.0000000   0.5000000), wk =   0.0312500
        k(   12) = (   1.2500000  -0.2500000   1.2500000), wk =   0.0000000
        k(   13) = (   0.0000000  -1.0000000   0.0000000), wk =   0.0312500
        k(   14) = (   0.7500000  -1.2500000   0.7500000), wk =   0.0000000
        k(   15) = (  -0.5000000  -1.0000000   0.0000000), wk =   0.0625000
        k(   16) = (   0.2500000  -1.2500000   0.7500000), wk =   0.0000000
        k(   17) = (  -0.2500000   0.2500000   0.2500000), wk =   0.0625000
        k(   18) = (   0.5000000   0.0000000   1.0000000), wk =   0.0000000
        k(   19) = (   0.2500000   0.2500000   0.2500000), wk =   0.0312500
        k(   20) = (   1.0000000   0.0000000   1.0000000), wk =   0.0000000
        k(   21) = (   0.2500000  -0.2500000   0.2500000), wk =   0.0312500
        k(   22) = (   1.0000000  -0.5000000   1.0000000), wk =   0.0000000
        k(   23) = (  -0.2500000  -0.2500000  -0.2500000), wk =   0.0312500
        k(   24) = (   0.5000000  -0.5000000   0.5000000), wk =   0.0000000
        k(   25) = (   0.2500000  -0.2500000  -0.2500000), wk =   0.0625000
        k(   26) = (   1.0000000  -0.5000000   0.5000000), wk =   0.0000000
        k(   27) = (   0.5000000  -0.5000000  -0.5000000), wk =   0.0625000
        k(   28) = (   1.2500000  -0.7500000   0.2500000), wk =   0.0000000
        k(   29) = (  -0.5000000  -0.5000000  -0.5000000), wk =   0.0312500
        k(   30) = (   0.2500000  -0.7500000   0.2500000), wk =   0.0000000
        k(   31) = (   0.0000000  -0.5000000   0.0000000), wk =   0.0312500
        k(   32) = (   0.7500000  -0.7500000   0.7500000), wk =   0.0000000
        k(   33) = (   0.5000000   0.0000000   0.0000000), wk =   0.0625000
        k(   34) = (   1.2500000  -0.2500000   0.7500000), wk =   0.0000000
        k(   35) = (   0.0000000   0.0000000  -0.5000000), wk =   0.0625000
        k(   36) = (   0.7500000  -0.2500000   0.2500000), wk =   0.0000000
        k(   37) = (   0.7500000  -0.2500000  -0.7500000), wk =   0.0625000
        k(   38) = (   1.5000000  -0.5000000   0.0000000), wk =   0.0000000
        k(   39) = (  -0.7500000  -0.2500000  -0.7500000), wk =   0.0312500
        k(   40) = (   0.0000000  -0.5000000   0.0000000), wk =   0.0000000
        k(   41) = (  -0.7500000   0.2500000  -0.7500000), wk =   0.0312500
        k(   42) = (   0.0000000   0.0000000   0.0000000), wk =   0.0000000
        k(   43) = (  -0.2500000   0.7500000  -0.7500000), wk =   0.0625000
        k(   44) = (   0.5000000   0.5000000   0.0000000), wk =   0.0000000
        k(   45) = (   0.7500000   0.2500000   0.7500000), wk =   0.0312500
        k(   46) = (   1.5000000   0.0000000   1.5000000), wk =   0.0000000
        k(   47) = (  -0.7500000   0.2500000   0.7500000), wk =   0.0625000
        k(   48) = (   0.0000000   0.0000000   1.5000000), wk =   0.0000000
        k(   49) = (  -0.7500000   0.7500000   0.2500000), wk =   0.0625000
        k(   50) = (   0.0000000   0.5000000   1.0000000), wk =   0.0000000
        k(   51) = (  -0.2500000   0.7500000   0.7500000), wk =   0.0625000
        k(   52) = (   0.5000000   0.5000000   1.5000000), wk =   0.0000000
        k(   53) = (  -0.2500000  -0.7500000  -0.7500000), wk =   0.0625000
        k(   54) = (   0.5000000  -1.0000000   0.0000000), wk =   0.0000000
        k(   55) = (   0.7500000  -0.7500000   0.2500000), wk =   0.0625000
        k(   56) = (   1.5000000  -1.0000000   1.0000000), wk =   0.0000000
        k(   57) = (  -0.7500000  -0.7500000   0.2500000), wk =   0.0625000
        k(   58) = (   0.0000000  -1.0000000   1.0000000), wk =   0.0000000
        k(   59) = (   0.2500000   0.7500000   0.7500000), wk =   0.0625000
        k(   60) = (   1.0000000   0.5000000   1.5000000), wk =   0.0000000
        k(   61) = (  -0.2500000  -0.7500000   0.7500000), wk =   0.0625000
        k(   62) = (   0.5000000  -1.0000000   1.5000000), wk =   0.0000000
        k(   63) = (   0.5000000   0.0000000  -0.5000000), wk =   0.0625000
        k(   64) = (   1.2500000  -0.2500000   0.2500000), wk =   0.0000000
        k(   65) = (  -0.5000000   0.0000000  -0.5000000), wk =   0.0312500
        k(   66) = (   0.2500000  -0.2500000   0.2500000), wk =   0.0000000
        k(   67) = (   0.0000000   0.5000000  -0.5000000), wk =   0.0625000
        k(   68) = (   0.7500000   0.2500000   0.2500000), wk =   0.0000000
        k(   69) = (   0.0000000   0.5000000   0.5000000), wk =   0.0625000
        k(   70) = (   0.7500000   0.2500000   1.2500000), wk =   0.0000000
        k(   71) = (   0.0000000  -0.5000000  -0.5000000), wk =   0.0625000
        k(   72) = (   0.7500000  -0.7500000   0.2500000), wk =   0.0000000
        k(   73) = (   0.5000000  -0.5000000   0.0000000), wk =   0.0625000
        k(   74) = (   1.2500000  -0.7500000   0.7500000), wk =   0.0000000
        k(   75) = (  -1.0000000   0.0000000   0.0000000), wk =   0.0625000
        k(   76) = (  -0.2500000  -0.2500000   0.7500000), wk =   0.0000000
        k(   77) = (   0.5000000  -1.0000000   0.0000000), wk =   0.0625000
        k(   78) = (   1.2500000  -1.2500000   0.7500000), wk =   0.0000000
        k(   79) = (  -1.0000000  -0.5000000   0.0000000), wk =   0.0625000
        k(   80) = (  -0.2500000  -0.7500000   0.7500000), wk =   0.0000000

     Dense  grid:     3943 G-vectors     FFT dimensions: (  24,  24,  24)

     Estimated max dynamical RAM per process >       0.53 MB

     Estimated total dynamical RAM >       2.13 MB

     The potential is recalculated from file :
     ./tmp/_ph0/silicon.save/charge-density

     Starting wfcs are    8 atomic wfcs

     Band Structure Calculation
     Davidson diagonalization with overlap

     ethr =  1.25E-10,  avg # of iterations =  9.8

     total cpu time spent up to now is        2.9 secs

     End of band structure calculation

          k = 0.0000 0.0000 0.0000 (   531 PWs)   bands (ev):

    -5.6105   6.8997   6.8997   6.8997

          k = 0.7500-0.2500 0.7500 (   497 PWs)   bands (ev):

    -2.6826   0.2859   3.0877   4.5343

          k =-0.2500 0.2500-0.2500 (   507 PWs)   bands (ev):

    -4.7538   2.8019   6.0914   6.0914

          k = 0.5000 0.0000 0.5000 (   500 PWs)   bands (ev):

    -3.4132   1.2611   2.8176   5.4859

          k = 0.5000-0.5000 0.5000 (   502 PWs)   bands (ev):

    -3.0679  -0.4753   5.6373   5.6373

          k = 1.2500-0.7500 1.2500 (   507 PWs)   bands (ev):

    -4.7538   2.8019   6.0914   6.0914

          k = 0.0000 0.5000 0.0000 (   504 PWs)   bands (ev):

    -4.4543   3.3802   4.8615   4.8615

          k = 0.7500 0.2500 0.7500 (   497 PWs)   bands (ev):

    -2.6826   0.2859   3.0877   4.5343

          k = 0.7500-0.2500 0.7500 (   497 PWs)   bands (ev):

    -2.6826   0.2859   3.0877   4.5343

          k = 1.5000-0.5000 1.5000 (   502 PWs)   bands (ev):

    -3.0679  -0.4753   5.6373   5.6373

          k = 0.5000 0.0000 0.5000 (   500 PWs)   bands (ev):

    -3.4132   1.2611   2.8176   5.4859

          k = 1.2500-0.2500 1.2500 (   497 PWs)   bands (ev):

    -2.6826   0.2859   3.0877   4.5343

          k = 0.0000-1.0000 0.0000 (   468 PWs)   bands (ev):

    -1.1778  -1.1778   3.8397   3.8397

          k = 0.7500-1.2500 0.7500 (   507 PWs)   bands (ev):

    -4.7538   2.8019   6.0914   6.0914

          k =-0.5000-1.0000 0.0000 (   488 PWs)   bands (ev):

    -0.9720  -0.9720   2.6835   2.6835

          k = 0.2500-1.2500 0.7500 (   497 PWs)   bands (ev):

    -2.6826   0.2859   3.0877   4.5343

          k =-0.2500 0.2500 0.2500 (   507 PWs)   bands (ev):

    -4.7538   2.8019   6.0914   6.0914

          k = 0.5000 0.0000 1.0000 (   488 PWs)   bands (ev):

    -0.9720  -0.9720   2.6835   2.6835

          k = 0.2500 0.2500 0.2500 (   507 PWs)   bands (ev):

    -4.7538   2.8019   6.0914   6.0914

          k = 1.0000 0.0000 1.0000 (   468 PWs)   bands (ev):

    -1.1778  -1.1778   3.8397   3.8397

          k = 0.2500-0.2500 0.2500 (   507 PWs)   bands (ev):

    -4.7538   2.8019   6.0914   6.0914

          k = 1.0000-0.5000 1.0000 (   504 PWs)   bands (ev):

    -4.4543   3.3802   4.8615   4.8615

          k =-0.2500-0.2500-0.2500 (   507 PWs)   bands (ev):

    -4.7538   2.8019   6.0914   6.0914

          k = 0.5000-0.5000 0.5000 (   502 PWs)   bands (ev):

    -3.0679  -0.4753   5.6373   5.6373

          k = 0.2500-0.2500-0.2500 (   507 PWs)   bands (ev):

    -4.7538   2.8019   6.0914   6.0914

          k = 1.0000-0.5000 0.5000 (   500 PWs)   bands (ev):

    -3.4132   1.2611   2.8176   5.4859

          k = 0.5000-0.5000-0.5000 (   502 PWs)   bands (ev):

    -3.0679  -0.4753   5.6373   5.6373

          k = 1.2500-0.7500 0.2500 (   497 PWs)   bands (ev):

    -2.6826   0.2859   3.0877   4.5343

          k =-0.5000-0.5000-0.5000 (   502 PWs)   bands (ev):

    -3.0679  -0.4753   5.6373   5.6373

          k = 0.2500-0.7500 0.2500 (   497 PWs)   bands (ev):

    -2.6826   0.2859   3.0877   4.5343

          k = 0.0000-0.5000 0.0000 (   504 PWs)   bands (ev):

    -4.4543   3.3802   4.8615   4.8615

          k = 0.7500-0.7500 0.7500 (   507 PWs)   bands (ev):

    -4.7538   2.8019   6.0914   6.0914

          k = 0.5000 0.0000 0.0000 (   504 PWs)   bands (ev):

    -4.4543   3.3802   4.8615   4.8615

          k = 1.2500-0.2500 0.7500 (   497 PWs)   bands (ev):

    -2.6826   0.2859   3.0877   4.5343

          k = 0.0000 0.0000-0.5000 (   504 PWs)   bands (ev):

    -4.4543   3.3802   4.8615   4.8615

          k = 0.7500-0.2500 0.2500 (   497 PWs)   bands (ev):

    -2.6826   0.2859   3.0877   4.5343

          k = 0.7500-0.2500-0.7500 (   497 PWs)   bands (ev):

    -2.6826   0.2859   3.0877   4.5343

          k = 1.5000-0.5000 0.0000 (   500 PWs)   bands (ev):

    -3.4132   1.2611   2.8176   5.4859

          k =-0.7500-0.2500-0.7500 (   497 PWs)   bands (ev):

    -2.6826   0.2859   3.0877   4.5343

          k = 0.0000-0.5000 0.0000 (   504 PWs)   bands (ev):

    -4.4543   3.3802   4.8615   4.8615

          k =-0.7500 0.2500-0.7500 (   497 PWs)   bands (ev):

    -2.6826   0.2859   3.0877   4.5343

          k = 0.0000 0.0000 0.0000 (   531 PWs)   bands (ev):

    -5.6105   6.8997   6.8997   6.8997

          k =-0.2500 0.7500-0.7500 (   497 PWs)   bands (ev):

    -2.6826   0.2859   3.0877   4.5343

          k = 0.5000 0.5000 0.0000 (   500 PWs)   bands (ev):

    -3.4132   1.2611   2.8176   5.4859

          k = 0.7500 0.2500 0.7500 (   497 PWs)   bands (ev):

    -2.6826   0.2859   3.0877   4.5343

          k = 1.5000 0.0000 1.5000 (   500 PWs)   bands (ev):

    -3.4132   1.2611   2.8176   5.4859

          k =-0.7500 0.2500 0.7500 (   497 PWs)   bands (ev):

    -2.6826   0.2859   3.0877   4.5343

          k = 0.0000 0.0000 1.5000 (   504 PWs)   bands (ev):

    -4.4543   3.3802   4.8615   4.8615

          k =-0.7500 0.7500 0.2500 (   497 PWs)   bands (ev):

    -2.6826   0.2859   3.0877   4.5343

          k = 0.0000 0.5000 1.0000 (   488 PWs)   bands (ev):

    -0.9720  -0.9720   2.6835   2.6835

          k =-0.2500 0.7500 0.7500 (   497 PWs)   bands (ev):

    -2.6826   0.2859   3.0877   4.5343

          k = 0.5000 0.5000 1.5000 (   502 PWs)   bands (ev):

    -3.0679  -0.4753   5.6373   5.6373

          k =-0.2500-0.7500-0.7500 (   497 PWs)   bands (ev):

    -2.6826   0.2859   3.0877   4.5343

          k = 0.5000-1.0000 0.0000 (   488 PWs)   bands (ev):

    -0.9720  -0.9720   2.6835   2.6835

          k = 0.7500-0.7500 0.2500 (   497 PWs)   bands (ev):

    -2.6826   0.2859   3.0877   4.5343

          k = 1.5000-1.0000 1.0000 (   504 PWs)   bands (ev):

    -4.4543   3.3802   4.8615   4.8615

          k =-0.7500-0.7500 0.2500 (   497 PWs)   bands (ev):

    -2.6826   0.2859   3.0877   4.5343

          k = 0.0000-1.0000 1.0000 (   468 PWs)   bands (ev):

    -1.1778  -1.1778   3.8397   3.8397

          k = 0.2500 0.7500 0.7500 (   497 PWs)   bands (ev):

    -2.6826   0.2859   3.0877   4.5343

          k = 1.0000 0.5000 1.5000 (   500 PWs)   bands (ev):

    -3.4132   1.2611   2.8176   5.4859

          k =-0.2500-0.7500 0.7500 (   497 PWs)   bands (ev):

    -2.6826   0.2859   3.0877   4.5343

          k = 0.5000-1.0000 1.5000 (   500 PWs)   bands (ev):

    -3.4132   1.2611   2.8176   5.4859

          k = 0.5000 0.0000-0.5000 (   500 PWs)   bands (ev):

    -3.4132   1.2611   2.8176   5.4859

          k = 1.2500-0.2500 0.2500 (   497 PWs)   bands (ev):

[...]


     Title: 
     Ph                                                                         


     bravais-lattice index     =            2
     lattice parameter (alat)  =      10.0000  a.u.
     unit-cell volume          =     250.0000 (a.u.)^3
     number of atoms/cell      =            2
     number of atomic types    =            1
     number of electrons       =         8.00
     number of Kohn-Sham states=            4
     kinetic-energy cutoff     =      24.0000  Ry
     charge density cutoff     =      96.0000  Ry
     Exchange-correlation= PZ
                           (   1   1   0   0   0   0   0)

     celldm(1)=  10.000000  celldm(2)=   0.000000  celldm(3)=   0.000000
     celldm(4)=   0.000000  celldm(5)=   0.000000  celldm(6)=   0.000000

     crystal axes: (cart. coord. in units of alat)
               a(1) = (  -0.500000   0.000000   0.500000 )  
               a(2) = (   0.000000   0.500000   0.500000 )  
               a(3) = (  -0.500000   0.500000   0.000000 )  

     reciprocal axes: (cart. coord. in units 2 pi/alat)
               b(1) = ( -1.000000 -1.000000  1.000000 )  
               b(2) = (  1.000000  1.000000  1.000000 )  
               b(3) = ( -1.000000  1.000000 -1.000000 )  


     PseudoPot. # 1 for Si read from file:
     ../Si.pz-rrkj.UPF
     MD5 check sum: 884b380b739b48e9cd334294cddc9a8d
     Pseudo is Norm-conserving, Zval =  4.0
     Generated using "atomic" code by A. Dal Corso (espresso distribution)
     Using radial grid of 1141 points,  2 beta functions with: 
                l(1) =   0
                l(2) =   1

     atomic species   valence    mass     pseudopotential
        Si             4.00    28.08600     Si( 1.00)

     48 Sym. Ops., with inversion, found



   Cartesian axes

     site n.     atom                  positions (alat units)
         1           Si  tau(   1) = (   0.0000000   0.0000000   0.0000000  )
         2           Si  tau(   2) = (   0.2500000   0.2500000   0.2500000  )

     number of k points=    32
                       cart. coord. in units 2pi/alat
        k(    1) = (   0.0000000   0.0000000   0.0000000), wk =   0.0312500
        k(    2) = (  -0.5000000  -1.0000000   0.0000000), wk =   0.0000000
        k(    3) = (  -0.2500000   0.2500000  -0.2500000), wk =   0.2500000
        k(    4) = (  -0.7500000  -0.7500000  -0.2500000), wk =   0.0000000
        k(    5) = (   0.5000000  -0.5000000   0.5000000), wk =   0.1250000
        k(    6) = (   0.0000000  -1.5000000   0.5000000), wk =   0.0000000
        k(    7) = (   0.0000000   0.5000000   0.0000000), wk =   0.1250000
        k(    8) = (  -0.5000000  -0.5000000   0.0000000), wk =   0.0000000
        k(    9) = (   0.7500000  -0.2500000   0.7500000), wk =   0.2500000
        k(   10) = (   0.2500000  -1.2500000   0.7500000), wk =   0.0000000
        k(   11) = (   0.5000000   0.0000000   0.5000000), wk =   0.1250000
        k(   12) = (   0.0000000  -1.0000000   0.5000000), wk =   0.0000000
        k(   13) = (   0.0000000  -1.0000000   0.0000000), wk =   0.0625000
        k(   14) = (  -0.5000000  -2.0000000   0.0000000), wk =   0.0000000
        k(   15) = (  -0.5000000  -1.0000000   0.0000000), wk =   0.0312500
        k(   16) = (  -1.0000000  -2.0000000   0.0000000), wk =   0.0000000
        k(   17) = (   0.5000000   0.0000000   0.0000000), wk =   0.0625000
        k(   18) = (   0.0000000  -1.0000000   0.0000000), wk =   0.0000000
        k(   19) = (  -0.7500000   0.2500000  -0.7500000), wk =   0.2500000
        k(   20) = (  -1.2500000  -0.7500000  -0.7500000), wk =   0.0000000
        k(   21) = (  -0.2500000   0.7500000   0.7500000), wk =   0.2500000
        k(   22) = (  -0.7500000  -0.2500000   0.7500000), wk =   0.0000000
        k(   23) = (  -0.5000000   0.0000000  -0.5000000), wk =   0.1250000
        k(   24) = (  -1.0000000  -1.0000000  -0.5000000), wk =   0.0000000
        k(   25) = (   0.0000000   0.5000000   0.5000000), wk =   0.1250000
        k(   26) = (  -0.5000000  -0.5000000   0.5000000), wk =   0.0000000
        k(   27) = (  -1.0000000   0.0000000   0.0000000), wk =   0.0312500
        k(   28) = (  -1.5000000  -1.0000000   0.0000000), wk =   0.0000000
        k(   29) = (   0.0000000   1.0000000   0.5000000), wk =   0.1250000
        k(   30) = (  -0.5000000   0.0000000   0.5000000), wk =   0.0000000
        k(   31) = (   0.5000000   1.0000000   0.0000000), wk =   0.0312500
        k(   32) = (   0.0000000   0.0000000   0.0000000), wk =   0.0000000

     Dense  grid:     3943 G-vectors     FFT dimensions: (  24,  24,  24)

     Estimated max dynamical RAM per process >       0.53 MB

     Estimated total dynamical RAM >       2.13 MB

     The potential is recalculated from file :
     ./tmp/_ph0/silicon.save/charge-density

     Starting wfcs are    8 atomic wfcs

     Band Structure Calculation
     Davidson diagonalization with overlap

     ethr =  1.25E-10,  avg # of iterations =  9.5

     total cpu time spent up to now is        5.5 secs

     End of band structure calculation

          k = 0.0000 0.0000 0.0000 (   531 PWs)   bands (ev):

    -5.6105   6.8997   6.8997   6.8997

          k =-0.5000-1.0000 0.0000 (   488 PWs)   bands (ev):

    -0.9720  -0.9720   2.6835   2.6835

          k =-0.2500 0.2500-0.2500 (   507 PWs)   bands (ev):

    -4.7538   2.8019   6.0914   6.0914

          k =-0.7500-0.7500-0.2500 (   497 PWs)   bands (ev):

    -2.6826   0.2859   3.0877   4.5343

          k = 0.5000-0.5000 0.5000 (   502 PWs)   bands (ev):

    -3.0679  -0.4753   5.6373   5.6373

          k = 0.0000-1.5000 0.5000 (   500 PWs)   bands (ev):

    -3.4132   1.2611   2.8176   5.4859

          k = 0.0000 0.5000 0.0000 (   504 PWs)   bands (ev):

    -4.4543   3.3802   4.8615   4.8615

          k =-0.5000-0.5000 0.0000 (   500 PWs)   bands (ev):

    -3.4132   1.2611   2.8176   5.4859

          k = 0.7500-0.2500 0.7500 (   497 PWs)   bands (ev):

    -2.6826   0.2859   3.0877   4.5343

          k = 0.2500-1.2500 0.7500 (   497 PWs)   bands (ev):

    -2.6826   0.2859   3.0877   4.5343

          k = 0.5000 0.0000 0.5000 (   500 PWs)   bands (ev):

    -3.4132   1.2611   2.8176   5.4859

          k = 0.0000-1.0000 0.5000 (   488 PWs)   bands (ev):

    -0.9720  -0.9720   2.6835   2.6835

          k = 0.0000-1.0000 0.0000 (   468 PWs)   bands (ev):

    -1.1778  -1.1778   3.8397   3.8397

          k =-0.5000-2.0000 0.0000 (   504 PWs)   bands (ev):

    -4.4543   3.3802   4.8615   4.8615

          k =-0.5000-1.0000 0.0000 (   488 PWs)   bands (ev):

    -0.9720  -0.9720   2.6835   2.6835

          k =-1.0000-2.0000 0.0000 (   468 PWs)   bands (ev):

    -1.1778  -1.1778   3.8397   3.8397

          k = 0.5000 0.0000 0.0000 (   504 PWs)   bands (ev):

    -4.4543   3.3802   4.8615   4.8615

          k = 0.0000-1.0000 0.0000 (   468 PWs)   bands (ev):

    -1.1778  -1.1778   3.8397   3.8397

          k =-0.7500 0.2500-0.7500 (   497 PWs)   bands (ev):

    -2.6826   0.2859   3.0877   4.5343

          k =-1.2500-0.7500-0.7500 (   507 PWs)   bands (ev):

    -4.7538   2.8019   6.0914   6.0914

          k =-0.2500 0.7500 0.7500 (   497 PWs)   bands (ev):

    -2.6826   0.2859   3.0877   4.5343

          k =-0.7500-0.2500 0.7500 (   497 PWs)   bands (ev):

    -2.6826   0.2859   3.0877   4.5343

          k =-0.5000 0.0000-0.5000 (   500 PWs)   bands (ev):

    -3.4132   1.2611   2.8176   5.4859

          k =-1.0000-1.0000-0.5000 (   504 PWs)   bands (ev):

    -4.4543   3.3802   4.8615   4.8615

          k = 0.0000 0.5000 0.5000 (   500 PWs)   bands (ev):

    -3.4132   1.2611   2.8176   5.4859

          k =-0.5000-0.5000 0.5000 (   502 PWs)   bands (ev):

    -3.0679  -0.4753   5.6373   5.6373

          k =-1.0000 0.0000 0.0000 (   468 PWs)   bands (ev):

    -1.1778  -1.1778   3.8397   3.8397

          k =-1.5000-1.0000 0.0000 (   488 PWs)   bands (ev):

    -0.9720  -0.9720   2.6835   2.6835

          k = 0.0000 1.0000 0.5000 (   488 PWs)   bands (ev):

    -0.9720  -0.9720   2.6835   2.6835

          k =-0.5000 0.0000 0.5000 (   500 PWs)   bands (ev):

    -3.4132   1.2611   2.8176   5.4859

          k = 0.5000 1.0000 0.0000 (   488 PWs)   bands (ev):

    -0.9720  -0.9720   2.6835   2.6835

          k = 0.0000 0.0000 0.0000 (   531 PWs)   bands (ev):

    -5.6105   6.8997   6.8997   6.8997

     highest occupied level (ev):     6.8997

     Writing output data file ./tmp/_ph0/silicon.save/

     Ph                                                                         

     bravais-lattice index     =            2
     lattice parameter (alat)  =      10.0000  a.u.
     unit-cell volume          =     250.0000 (a.u.)^3
     number of atoms/cell      =            2
     number of atomic types    =            1
     kinetic-energy cut-off    =      24.0000  Ry
     charge density cut-off    =      96.0000  Ry
     convergence threshold     =      1.0E-16
     beta                      =       0.7000
     number of iterations used =            4
     Exchange-correlation= PZ
                           (   1   1   0   0   0   0   0)


     celldm(1)=   10.00000  celldm(2)=    0.00000  celldm(3)=    0.00000
     celldm(4)=    0.00000  celldm(5)=    0.00000  celldm(6)=    0.00000

     crystal axes: (cart. coord. in units of alat)
               a(1) = ( -0.5000  0.0000  0.5000 )  
               a(2) = (  0.0000  0.5000  0.5000 )  
               a(3) = ( -0.5000  0.5000  0.0000 )  

     reciprocal axes: (cart. coord. in units 2 pi/alat)
               b(1) = ( -1.0000 -1.0000  1.0000 )  
               b(2) = (  1.0000  1.0000  1.0000 )  
               b(3) = ( -1.0000  1.0000 -1.0000 )  


     Atoms inside the unit cell: 

     Cartesian axes

     site n.  atom      mass           positions (alat units)
        1     Si  28.0860   tau(    1) = (    0.00000    0.00000    0.00000  )
        2     Si  28.0860   tau(    2) = (    0.25000    0.25000    0.25000  )

     Computing dynamical matrix for 
                    q = (  -0.5000000  -1.0000000   0.0000000 )

      8 Sym.Ops. (no q -> -q+G )


     G cutoff =  243.1708  (    985 G-vectors)     FFT grid: ( 24, 24, 24)
     number of k points=    32

     PseudoPot. # 1 for Si read from file:
     ../Si.pz-rrkj.UPF
     MD5 check sum: 884b380b739b48e9cd334294cddc9a8d
     Pseudo is Norm-conserving, Zval =  4.0
     Generated using "atomic" code by A. Dal Corso (espresso distribution)
     Using radial grid of 1141 points,  2 beta functions with: 
                l(1) =   0
                l(2) =   1


     Atomic displacements:
     There are    3 irreducible representations

     Representation     1      2 modes -  To be done

     Representation     2      2 modes -  To be done

     Representation     3      2 modes -  To be done



     Alpha used in Ewald sum =   1.0000
     PHONON       :   1m27.60s CPU   1m51.43s WALL



     Representation #   1 modes #   1   2

     Self-consistent Calculation

      iter #   1 total cpu time :   111.9 secs   av.it.:   5.7
      thresh= 1.000E-02 alpha_mix =  0.700 |ddv_scf|^2 =  6.281E-06

      iter #   2 total cpu time :   112.4 secs   av.it.:   9.1
      thresh= 2.506E-04 alpha_mix =  0.700 |ddv_scf|^2 =  7.391E-06

      iter #   3 total cpu time :   113.0 secs   av.it.:   8.5
      thresh= 2.719E-04 alpha_mix =  0.700 |ddv_scf|^2 =  5.895E-10

      iter #   4 total cpu time :   113.6 secs   av.it.:   8.8
      thresh= 2.428E-06 alpha_mix =  0.700 |ddv_scf|^2 =  2.446E-11

      iter #   5 total cpu time :   114.2 secs   av.it.:   8.4
      thresh= 4.945E-07 alpha_mix =  0.700 |ddv_scf|^2 =  4.305E-14

      iter #   6 total cpu time :   114.7 secs   av.it.:   8.5
      thresh= 2.075E-08 alpha_mix =  0.700 |ddv_scf|^2 =  1.034E-15

      iter #   7 total cpu time :   115.4 secs   av.it.:   8.9
      thresh= 3.215E-09 alpha_mix =  0.700 |ddv_scf|^2 =  7.417E-17

     End of self-consistent calculation

     Convergence has been achieved 


     Representation #   2 modes #   3   4

     Self-consistent Calculation

      iter #   1 total cpu time :   115.8 secs   av.it.:   5.6
      thresh= 1.000E-02 alpha_mix =  0.700 |ddv_scf|^2 =  3.264E-06

      iter #   2 total cpu time :   117.6 secs   av.it.:   9.2
      thresh= 1.807E-04 alpha_mix =  0.700 |ddv_scf|^2 =  2.313E-06

      iter #   3 total cpu time :   119.8 secs   av.it.:   8.5
      thresh= 1.521E-04 alpha_mix =  0.700 |ddv_scf|^2 =  2.097E-10

      iter #   4 total cpu time :   120.4 secs   av.it.:   8.6
      thresh= 1.448E-06 alpha_mix =  0.700 |ddv_scf|^2 =  1.325E-11

      iter #   5 total cpu time :   121.0 secs   av.it.:   8.6
      thresh= 3.640E-07 alpha_mix =  0.700 |ddv_scf|^2 =  2.201E-14

      iter #   6 total cpu time :   121.6 secs   av.it.:   9.2
      thresh= 1.484E-08 alpha_mix =  0.700 |ddv_scf|^2 =  2.730E-16

      iter #   7 total cpu time :   122.2 secs   av.it.:   9.2
      thresh= 1.652E-09 alpha_mix =  0.700 |ddv_scf|^2 =  4.124E-17

     End of self-consistent calculation

     Convergence has been achieved 


     Representation #   3 modes #   5   6

     Self-consistent Calculation

      iter #   1 total cpu time :   122.6 secs   av.it.:   5.8
      thresh= 1.000E-02 alpha_mix =  0.700 |ddv_scf|^2 =  3.960E-06

      iter #   2 total cpu time :   123.2 secs   av.it.:   9.2
      thresh= 1.990E-04 alpha_mix =  0.700 |ddv_scf|^2 =  2.883E-06

      iter #   3 total cpu time :   123.8 secs   av.it.:   8.6
      thresh= 1.698E-04 alpha_mix =  0.700 |ddv_scf|^2 =  1.919E-10

      iter #   4 total cpu time :   124.4 secs   av.it.:   8.9
      thresh= 1.385E-06 alpha_mix =  0.700 |ddv_scf|^2 =  2.230E-11

      iter #   5 total cpu time :   125.0 secs   av.it.:   8.6
      thresh= 4.722E-07 alpha_mix =  0.700 |ddv_scf|^2 =  1.144E-14

      iter #   6 total cpu time :   125.5 secs   av.it.:   9.2
      thresh= 1.070E-08 alpha_mix =  0.700 |ddv_scf|^2 =  2.436E-16

      iter #   7 total cpu time :   126.1 secs   av.it.:   9.3
      thresh= 1.561E-09 alpha_mix =  0.700 |ddv_scf|^2 =  2.652E-17

     End of self-consistent calculation

     Convergence has been achieved 

     Number of q in the star =    6
     List of q in the star:
          1  -0.500000000  -1.000000000   0.000000000
          2   0.000000000   1.000000000   0.500000000
          3   0.000000000  -1.000000000  -0.500000000
          4   0.500000000   1.000000000   0.000000000
          5  -1.000000000  -0.500000000   0.000000000
          6   0.000000000  -0.500000000  -1.000000000

     Diagonalizing the dynamical matrix

     q = (   -0.500000000  -1.000000000   0.000000000 ) 

 **************************************************************************
     freq (    1) =       6.158441 [THz] =     205.423471 [cm-1]
     freq (    2) =       6.158441 [THz] =     205.423471 [cm-1]
     freq (    3) =      11.226110 [THz] =     374.462729 [cm-1]
     freq (    4) =      11.226110 [THz] =     374.462729 [cm-1]
     freq (    5) =      14.856177 [THz] =     495.548709 [cm-1]
     freq (    6) =      14.856177 [THz] =     495.548709 [cm-1]
 **************************************************************************

     init_run     :      0.13s CPU      0.17s WALL (       7 calls)
     electrons    :      4.24s CPU      5.24s WALL (       7 calls)

     Called by init_run:
     wfcinit      :      0.00s CPU      0.00s WALL (       7 calls)
     potinit      :      0.01s CPU      0.01s WALL (       7 calls)
     hinit0       :      0.10s CPU      0.12s WALL (       7 calls)

     Called by electrons:
     c_bands      :      4.24s CPU      5.23s WALL (       7 calls)
     v_of_rho     :      0.00s CPU      0.00s WALL (       8 calls)

     Called by c_bands:
     init_us_2    :      0.18s CPU      0.23s WALL (    7285 calls)
     cegterg      :      3.56s CPU      4.41s WALL (     292 calls)

     Called by *egterg:
     cdiaghg      :      0.14s CPU      0.16s WALL (    3128 calls)
     h_psi        :     66.62s CPU     84.79s WALL (   74343 calls)
     g_psi        :      0.01s CPU      0.01s WALL (    2836 calls)

     Called by h_psi:
     h_psi:calbec :      5.19s CPU      7.07s WALL (   74343 calls)
     vloc_psi     :     60.29s CPU     76.40s WALL (   74343 calls)
     add_vuspsi   :      0.65s CPU      0.75s WALL (   74343 calls)

     General routines
     calbec       :      7.56s CPU     10.31s WALL (  150526 calls)
     fft          :      0.76s CPU      0.96s WALL (    1145 calls)
     ffts         :      0.16s CPU      0.20s WALL (    1164 calls)
     fftw         :     71.65s CPU     91.06s WALL (  653366 calls)
     davcio       :      0.70s CPU      0.85s WALL (   37336 calls)

     Parallel routines

     PHONON       :   1m38.39s CPU   2m 6.26s WALL

     INITIALIZATION: 
     phq_setup    :      0.02s CPU      0.03s WALL (       8 calls)
     phq_init     :      0.20s CPU      0.25s WALL (       8 calls)

     phq_init     :      0.20s CPU      0.25s WALL (       8 calls)
     init_vloc    :      0.00s CPU      0.01s WALL (       8 calls)
     init_us_1    :      0.04s CPU      0.05s WALL (       8 calls)

     DYNAMICAL MATRIX:
     dynmat0      :      0.04s CPU      0.05s WALL (       8 calls)
     phqscf       :     91.45s CPU    117.63s WALL (       8 calls)
     dynmatrix    :      0.06s CPU      0.08s WALL (       8 calls)

     phqscf       :     91.45s CPU    117.63s WALL (       8 calls)
     solve_linter :     91.16s CPU    117.18s WALL (      32 calls)
     drhodv       :      0.24s CPU      0.38s WALL (      32 calls)

     dynmat0      :      0.04s CPU      0.05s WALL (       8 calls)
     dynmat_us    :      0.03s CPU      0.04s WALL (       8 calls)
     d2ionq       :      0.00s CPU      0.00s WALL (       8 calls)

     dynmat_us    :      0.03s CPU      0.04s WALL (       8 calls)

     phqscf       :     91.45s CPU    117.63s WALL (       8 calls)
     solve_linter :     91.16s CPU    117.18s WALL (      32 calls)

     solve_linter :     91.16s CPU    117.18s WALL (      32 calls)
     dvqpsi_us    :      1.06s CPU      1.43s WALL (     972 calls)
     ortho        :      0.59s CPU      0.86s WALL (    7492 calls)
     cgsolve      :     72.74s CPU     93.47s WALL (    7492 calls)
     incdrhoscf   :      6.79s CPU      8.47s WALL (    7468 calls)
     vpsifft      :      6.83s CPU      8.68s WALL (    6400 calls)
     dv_of_drho   :      0.77s CPU      0.97s WALL (     371 calls)
     mix_pot      :      0.28s CPU      0.37s WALL (     258 calls)
     psymdvscf    :      1.66s CPU      2.01s WALL (     252 calls)

     dvqpsi_us    :      1.06s CPU      1.43s WALL (     972 calls)
     dvqpsi_us_on :      0.04s CPU      0.05s WALL (     972 calls)

     cgsolve      :     72.74s CPU     93.47s WALL (    7492 calls)
     ch_psi       :     69.63s CPU     89.08s WALL (   70923 calls)

     ch_psi       :     69.63s CPU     89.08s WALL (   70923 calls)
     h_psi        :     66.62s CPU     84.79s WALL (   74343 calls)
     last         :      5.90s CPU      7.90s WALL (   70923 calls)

     h_psi        :     66.62s CPU     84.79s WALL (   74343 calls)
     add_vuspsi   :      0.65s CPU      0.75s WALL (   74343 calls)

     incdrhoscf   :      6.79s CPU      8.47s WALL (    7468 calls)


      General routines
     calbec       :      7.56s CPU     10.31s WALL (  150526 calls)
     fft          :      0.76s CPU      0.96s WALL (    1145 calls)
     ffts         :      0.16s CPU      0.20s WALL (    1164 calls)
     fftw         :     71.65s CPU     91.06s WALL (  653366 calls)
     davcio       :      0.70s CPU      0.85s WALL (   37336 calls)
     write_rec    :      0.22s CPU      0.43s WALL (     290 calls)


     PHONON       :   1m38.39s CPU   2m 6.26s WALL


   This run was terminated on:  10:54:54  19Apr2021            

=------------------------------------------------------------------------------=
   JOB DONE.
=------------------------------------------------------------------------------=
