--------------------------------------------------------------------------
[[31858,1],0]: A high-performance Open MPI point-to-point messaging module
was unable to find any relevant network interfaces:

Module: OpenFabrics (openib)
  Host: H388X

Another transport will be used instead, although this may result in
lower performance.

NOTE: You can disable this warning by setting the MCA parameter
btl_base_warn_component_unused to 0.
--------------------------------------------------------------------------

     Program PHONON v.6.7GPU starts on 19Apr2021 at 11: 2:21 

     This program is part of the open-source Quantum ESPRESSO suite
     for quantum simulation of materials; please cite
         "P. Giannozzi et al., J. Phys.:Condens. Matter 21 395502 (2009);
         "P. Giannozzi et al., J. Phys.:Condens. Matter 29 465901 (2017);
         "P. Giannozzi et al., J. Chem. Phys. 152 154105 (2020);
          URL http://www.quantum-espresso.org", 
     in publications or presentations arising from this work. More details at
     http://www.quantum-espresso.org/quote

     Parallel version (MPI), running on     4 processors

     MPI processes distributed on     1 nodes
     R & G space division:  proc/nbgrp/npool/nimage =       4
     Reading input from ph.in

     Reading xml data from directory:

     ./tmp/silicon.save/

     IMPORTANT: XC functional enforced from input :
     Exchange-correlation= PZ
                           (   1   1   0   0   0   0   0)
     Any further DFT definition will be discarded
     Please, verify this is what you really want


     Parallelization info
     --------------------
     sticks:   dense  smooth     PW     G-vecs:    dense   smooth      PW
     Min          90      90     30                 1118     1118     216
     Max          91      91     31                 1120     1120     218
     Sum         361     361    121                 4477     4477     869

     Using Slab Decomposition

     Reading collected, re-writing distributed wavefunctions


     Dynamical matrices for ( 4, 4, 4)  uniform grid of q-points
     (   8 q-points):
       N         xq(1)         xq(2)         xq(3) 
       1   0.000000000   0.000000000   0.000000000
       2  -0.250000000   0.250000000  -0.250000000
       3   0.500000000  -0.500000000   0.500000000
       4   0.000000000   0.500000000   0.000000000
       5   0.750000000  -0.250000000   0.750000000
       6   0.500000000   0.000000000   0.500000000
       7   0.000000000  -1.000000000   0.000000000
       8  -0.500000000  -1.000000000   0.000000000

     Calculation of q =    0.0000000   0.0000000   0.0000000

     Ph                                                                         

     bravais-lattice index     =            2
     lattice parameter (alat)  =      10.4000  a.u.
     unit-cell volume          =     281.2160 (a.u.)^3
     number of atoms/cell      =            2
     number of atomic types    =            1
     kinetic-energy cut-off    =      24.0000  Ry
     charge density cut-off    =      96.0000  Ry
     convergence threshold     =      1.0E-16
     beta                      =       0.7000
     number of iterations used =            4
     Exchange-correlation= PZ
                           (   1   1   0   0   0   0   0)


     celldm(1)=   10.40000  celldm(2)=    0.00000  celldm(3)=    0.00000
     celldm(4)=    0.00000  celldm(5)=    0.00000  celldm(6)=    0.00000

     crystal axes: (cart. coord. in units of alat)
               a(1) = ( -0.5000  0.0000  0.5000 )  
               a(2) = (  0.0000  0.5000  0.5000 )  
               a(3) = ( -0.5000  0.5000  0.0000 )  

     reciprocal axes: (cart. coord. in units 2 pi/alat)
               b(1) = ( -1.0000 -1.0000  1.0000 )  
               b(2) = (  1.0000  1.0000  1.0000 )  
               b(3) = ( -1.0000  1.0000 -1.0000 )  


     Atoms inside the unit cell: 

     Cartesian axes

     site n.  atom      mass           positions (alat units)
        1     Si  28.0860   tau(    1) = (    0.00000    0.00000    0.00000  )
        2     Si  28.0860   tau(    2) = (    0.25000    0.25000    0.25000  )

     Computing dynamical matrix for 
                    q = (   0.0000000   0.0000000   0.0000000 )

     49 Sym.Ops. (with q -> -q+G )


     G cutoff =  263.0136  (   1120 G-vectors)     FFT grid: ( 24, 24, 24)
     number of k points=     8

     PseudoPot. # 1 for Si read from file:
     ../Si.pz-rrkj.UPF
     MD5 check sum: 884b380b739b48e9cd334294cddc9a8d
     Pseudo is Norm-conserving, Zval =  4.0
     Generated using "atomic" code by A. Dal Corso (espresso distribution)
     Using radial grid of 1141 points,  2 beta functions with: 
                l(1) =   0
                l(2) =   1

     Mode symmetry, O_h (m-3m)  point group:


     Electric field:
     Dielectric constant
     Born effective charges in two ways 


     Atomic displacements:
     There are    2 irreducible representations

     Representation     1      3 modes -  To be done

     Representation     2      3 modes -  To be done



     Alpha used in Ewald sum =   1.0000
     PHONON       :      0.12s CPU      0.13s WALL


     Electric Fields Calculation

      iter #   1 total cpu time :     1.3 secs   av.it.:   5.7
      thresh= 1.000E-02 alpha_mix =  0.700 |ddv_scf|^2 =  5.083E-07

      iter #   2 total cpu time :     1.7 secs   av.it.:   9.0
      thresh= 7.129E-05 alpha_mix =  0.700 |ddv_scf|^2 =  2.267E-08

      iter #   3 total cpu time :     2.2 secs   av.it.:   9.2
      thresh= 1.506E-05 alpha_mix =  0.700 |ddv_scf|^2 =  5.379E-10

      iter #   4 total cpu time :     2.7 secs   av.it.:   9.2
      thresh= 2.319E-06 alpha_mix =  0.700 |ddv_scf|^2 =  3.245E-12

      iter #   5 total cpu time :     3.2 secs   av.it.:   8.8
      thresh= 1.802E-07 alpha_mix =  0.700 |ddv_scf|^2 =  7.254E-16

      iter #   6 total cpu time :     3.6 secs   av.it.:   8.8
      thresh= 2.693E-09 alpha_mix =  0.700 |ddv_scf|^2 =  1.876E-17

     End of electric fields calculation

          Dielectric constant in cartesian axis 

          (      26.045849564       0.000000000      -0.000000000 )
          (       0.000000000      26.045849564      -0.000000000 )
          (      -0.000000000      -0.000000000      26.045849564 )

          Effective charges (d Force / dE) in cartesian axis

           atom      1   Si 
      Ex  (       -1.23665        0.00000        0.00000 )
      Ey  (        0.00000       -1.23665       -0.00000 )
      Ez  (        0.00000       -0.00000       -1.23665 )
           atom      2   Si 
      Ex  (       -1.23665        0.00000        0.00000 )
      Ey  (        0.00000       -1.23665       -0.00000 )
      Ez  (        0.00000       -0.00000       -1.23665 )


     Representation #   1 modes #   1   2   3

     Self-consistent Calculation

      iter #   1 total cpu time :     4.1 secs   av.it.:   4.8
      thresh= 1.000E-02 alpha_mix =  0.700 |ddv_scf|^2 =  1.064E-07
[H388X:28795] 3 more processes have sent help message help-mpi-btl-base.txt / btl:no-nics
[H388X:28795] Set MCA parameter "orte_base_help_aggregate" to 0 to see all help / error messages

      iter #   2 total cpu time :     4.9 secs   av.it.:   8.7
      thresh= 3.262E-05 alpha_mix =  0.700 |ddv_scf|^2 =  1.808E-09

      iter #   3 total cpu time :     5.4 secs   av.it.:   8.8
      thresh= 4.252E-06 alpha_mix =  0.700 |ddv_scf|^2 =  2.503E-11

      iter #   4 total cpu time :     5.9 secs   av.it.:   8.2
      thresh= 5.003E-07 alpha_mix =  0.700 |ddv_scf|^2 =  1.937E-14

      iter #   5 total cpu time :     6.5 secs   av.it.:   9.2
      thresh= 1.392E-08 alpha_mix =  0.700 |ddv_scf|^2 =  1.608E-16

      iter #   6 total cpu time :     7.0 secs   av.it.:   8.8
      thresh= 1.268E-09 alpha_mix =  0.700 |ddv_scf|^2 =  1.927E-18

     End of self-consistent calculation

     Convergence has been achieved 


     Representation #   2 modes #   4   5   6

     Self-consistent Calculation

      iter #   1 total cpu time :     7.3 secs   av.it.:   5.0
      thresh= 1.000E-02 alpha_mix =  0.700 |ddv_scf|^2 =  8.067E-08

      iter #   2 total cpu time :     7.7 secs   av.it.:   9.4
      thresh= 2.840E-05 alpha_mix =  0.700 |ddv_scf|^2 =  3.512E-09

      iter #   3 total cpu time :     8.2 secs   av.it.:   9.3
      thresh= 5.926E-06 alpha_mix =  0.700 |ddv_scf|^2 =  3.431E-11

      iter #   4 total cpu time :     8.8 secs   av.it.:   9.0
      thresh= 5.857E-07 alpha_mix =  0.700 |ddv_scf|^2 =  7.959E-14

      iter #   5 total cpu time :     9.2 secs   av.it.:   9.5
      thresh= 2.821E-08 alpha_mix =  0.700 |ddv_scf|^2 =  9.934E-16

      iter #   6 total cpu time :     9.7 secs   av.it.:   9.2
      thresh= 3.152E-09 alpha_mix =  0.700 |ddv_scf|^2 =  7.568E-19

     End of self-consistent calculation

     Convergence has been achieved 

     Number of q in the star =    1
     List of q in the star:
          1   0.000000000   0.000000000   0.000000000

          Dielectric constant in cartesian axis 

          (      26.045849564       0.000000000      -0.000000000 )
          (       0.000000000      26.045849564      -0.000000000 )
          (      -0.000000000      -0.000000000      26.045849564 )

          Effective charges (d Force / dE) in cartesian axis

           atom      1   Si 
      Ex  (       -1.23665        0.00000        0.00000 )
      Ey  (        0.00000       -1.23665       -0.00000 )
      Ez  (        0.00000       -0.00000       -1.23665 )
           atom      2   Si 
      Ex  (       -1.23665        0.00000        0.00000 )
      Ey  (        0.00000       -1.23665       -0.00000 )
      Ez  (        0.00000       -0.00000       -1.23665 )

          Effective charges (d P / du) in cartesian axis 

           atom      1   Si 
      Px  (       -1.23665       -0.00000       -0.00000 )
      Py  (       -0.00000       -1.23665        0.00000 )
      Pz  (       -0.00000        0.00000       -1.23665 )
           atom      2   Si 
      Px  (       -1.23665        0.00000        0.00000 )
      Py  (        0.00000       -1.23665       -0.00000 )
      Pz  (        0.00000       -0.00000       -1.23665 )

     Diagonalizing the dynamical matrix

     q = (    0.000000000   0.000000000   0.000000000 ) 

 **************************************************************************
     freq (    1) =       0.127542 [THz] =       4.254347 [cm-1]
     freq (    2) =       0.127542 [THz] =       4.254347 [cm-1]
     freq (    3) =       0.127542 [THz] =       4.254347 [cm-1]
     freq (    4) =      14.687902 [THz] =     489.935672 [cm-1]
     freq (    5) =      14.687902 [THz] =     489.935672 [cm-1]
     freq (    6) =      14.687902 [THz] =     489.935672 [cm-1]
 **************************************************************************

     Mode symmetry, O_h (m-3m)  point group:

     freq (   1-   3) =          4.3  [cm-1]   --> T_1u G_15  G_4- I  
     freq (   4-   6) =        489.9  [cm-1]   --> T_2g G_25' G_5+ R  

     Calculation of q =   -0.2500000   0.2500000  -0.2500000

     Subspace diagonalization in iterative solution of the eigenvalue problem:
     a serial algorithm will be used


     Parallelization info
     --------------------
     sticks:   dense  smooth     PW     G-vecs:    dense   smooth      PW
     Min          90      90     30                 1118     1118     234
     Max          91      91     31                 1120     1120     238
     Sum         361     361    121                 4477     4477     941

     Using Slab Decomposition


     Title: 
     Ph                                                                         


     bravais-lattice index     =            2
     lattice parameter (alat)  =      10.4000  a.u.
     unit-cell volume          =     281.2160 (a.u.)^3
     number of atoms/cell      =            2
     number of atomic types    =            1
     number of electrons       =         8.00
     number of Kohn-Sham states=            4
     kinetic-energy cutoff     =      24.0000  Ry
     charge density cutoff     =      96.0000  Ry
     Exchange-correlation= PZ
                           (   1   1   0   0   0   0   0)

     celldm(1)=  10.400000  celldm(2)=   0.000000  celldm(3)=   0.000000
     celldm(4)=   0.000000  celldm(5)=   0.000000  celldm(6)=   0.000000

     crystal axes: (cart. coord. in units of alat)
               a(1) = (  -0.500000   0.000000   0.500000 )  
               a(2) = (   0.000000   0.500000   0.500000 )  
               a(3) = (  -0.500000   0.500000   0.000000 )  

     reciprocal axes: (cart. coord. in units 2 pi/alat)
               b(1) = ( -1.000000 -1.000000  1.000000 )  
               b(2) = (  1.000000  1.000000  1.000000 )  
               b(3) = ( -1.000000  1.000000 -1.000000 )  


     PseudoPot. # 1 for Si read from file:
     ../Si.pz-rrkj.UPF
     MD5 check sum: 884b380b739b48e9cd334294cddc9a8d
     Pseudo is Norm-conserving, Zval =  4.0
     Generated using "atomic" code by A. Dal Corso (espresso distribution)
     Using radial grid of 1141 points,  2 beta functions with: 
                l(1) =   0
                l(2) =   1

     atomic species   valence    mass     pseudopotential
        Si             4.00    28.08600     Si( 1.00)

     48 Sym. Ops., with inversion, found



   Cartesian axes

     site n.     atom                  positions (alat units)
         1           Si  tau(   1) = (   0.0000000   0.0000000   0.0000000  )
         2           Si  tau(   2) = (   0.2500000   0.2500000   0.2500000  )

     number of k points=    40
                       cart. coord. in units 2pi/alat
        k(    1) = (   0.0000000   0.0000000   0.0000000), wk =   0.0312500
        k(    2) = (  -0.2500000   0.2500000  -0.2500000), wk =   0.0000000
        k(    3) = (  -0.2500000   0.2500000  -0.2500000), wk =   0.0312500
        k(    4) = (  -0.5000000   0.5000000  -0.5000000), wk =   0.0000000
        k(    5) = (   0.5000000  -0.5000000   0.5000000), wk =   0.0312500
        k(    6) = (   0.2500000  -0.2500000   0.2500000), wk =   0.0000000
        k(    7) = (   0.0000000   0.5000000   0.0000000), wk =   0.0937500
        k(    8) = (  -0.2500000   0.7500000  -0.2500000), wk =   0.0000000
        k(    9) = (   0.7500000  -0.2500000   0.7500000), wk =   0.0937500
        k(   10) = (   0.5000000   0.0000000   0.5000000), wk =   0.0000000
        k(   11) = (   0.5000000   0.0000000   0.5000000), wk =   0.0937500
        k(   12) = (   0.2500000   0.2500000   0.2500000), wk =   0.0000000
        k(   13) = (   0.0000000  -1.0000000   0.0000000), wk =   0.0937500
        k(   14) = (  -0.2500000  -0.7500000  -0.2500000), wk =   0.0000000
        k(   15) = (  -0.5000000  -1.0000000   0.0000000), wk =   0.1875000
        k(   16) = (  -0.7500000  -0.7500000  -0.2500000), wk =   0.0000000
        k(   17) = (   0.2500000  -0.2500000  -0.2500000), wk =   0.0937500
        k(   18) = (   0.0000000   0.0000000  -0.5000000), wk =   0.0000000
        k(   19) = (   0.2500000  -0.2500000   0.2500000), wk =   0.0312500
        k(   20) = (   0.0000000   0.0000000   0.0000000), wk =   0.0000000
        k(   21) = (  -0.2500000  -0.2500000  -0.2500000), wk =   0.0937500
        k(   22) = (  -0.5000000   0.0000000  -0.5000000), wk =   0.0000000
        k(   23) = (  -0.5000000   0.5000000   0.5000000), wk =   0.0937500
        k(   24) = (  -0.7500000   0.7500000   0.2500000), wk =   0.0000000
        k(   25) = (   0.0000000   0.0000000   0.5000000), wk =   0.0937500
        k(   26) = (  -0.2500000   0.2500000   0.2500000), wk =   0.0000000
        k(   27) = (  -0.7500000   0.7500000   0.2500000), wk =   0.0937500
        k(   28) = (  -1.0000000   1.0000000   0.0000000), wk =   0.0000000
        k(   29) = (  -0.7500000   0.7500000  -0.2500000), wk =   0.0937500
        k(   30) = (  -1.0000000   1.0000000  -0.5000000), wk =   0.0000000
        k(   31) = (  -0.7500000   0.2500000   0.7500000), wk =   0.1875000
        k(   32) = (  -1.0000000   0.5000000   0.5000000), wk =   0.0000000
        k(   33) = (   0.7500000   0.2500000   0.7500000), wk =   0.0937500
        k(   34) = (   0.5000000   0.5000000   0.5000000), wk =   0.0000000
        k(   35) = (   0.7500000  -0.2500000  -0.7500000), wk =   0.1875000
        k(   36) = (   0.5000000   0.0000000  -1.0000000), wk =   0.0000000
        k(   37) = (  -0.5000000   0.5000000   0.0000000), wk =   0.0937500
        k(   38) = (  -0.7500000   0.7500000  -0.2500000), wk =   0.0000000
        k(   39) = (  -0.5000000   0.0000000   0.5000000), wk =   0.1875000
        k(   40) = (  -0.7500000   0.2500000   0.2500000), wk =   0.0000000

     Dense  grid:     4477 G-vectors     FFT dimensions: (  24,  24,  24)

     Estimated max dynamical RAM per process >       0.56 MB

     Estimated total dynamical RAM >       2.25 MB

     The potential is recalculated from file :
     ./tmp/_ph0/silicon.save/charge-density

     Starting wfcs are    8 atomic wfcs

     Band Structure Calculation
     Davidson diagonalization with overlap

     ethr =  1.25E-10,  avg # of iterations =  9.8

     total cpu time spent up to now is        0.7 secs

     End of band structure calculation

          k = 0.0000 0.0000 0.0000 (   537 PWs)   bands (ev):

    -6.0333   5.6649   5.6649   5.6649

          k =-0.2500 0.2500-0.2500 (   564 PWs)   bands (ev):

    -5.2607   1.7855   4.9308   4.9308

          k =-0.2500 0.2500-0.2500 (   564 PWs)   bands (ev):

    -5.2607   1.7855   4.9308   4.9308

          k =-0.5000 0.5000-0.5000 (   568 PWs)   bands (ev):

    -3.7921  -1.1523   4.5035   4.5035

          k = 0.5000-0.5000 0.5000 (   568 PWs)   bands (ev):

    -3.7921  -1.1523   4.5035   4.5035

          k = 0.2500-0.2500 0.2500 (   564 PWs)   bands (ev):

    -5.2607   1.7855   4.9308   4.9308

          k = 0.0000 0.5000 0.0000 (   560 PWs)   bands (ev):

    -4.9875   2.1224   3.8444   3.8444

          k =-0.2500 0.7500-0.2500 (   558 PWs)   bands (ev):

    -3.4124  -0.6270   2.2313   3.5375

          k = 0.7500-0.2500 0.7500 (   558 PWs)   bands (ev):

    -3.4124  -0.6270   2.2313   3.5375

          k = 0.5000 0.0000 0.5000 (   554 PWs)   bands (ev):

    -4.0611   0.2420   2.0309   4.3822

          k = 0.5000 0.0000 0.5000 (   554 PWs)   bands (ev):

    -4.0611   0.2420   2.0309   4.3822

          k = 0.2500 0.2500 0.2500 (   564 PWs)   bands (ev):

    -5.2607   1.7855   4.9308   4.9308

          k = 0.0000-1.0000 0.0000 (   556 PWs)   bands (ev):

    -2.0309  -2.0309   2.9120   2.9120

          k =-0.2500-0.7500-0.2500 (   558 PWs)   bands (ev):

    -3.4124  -0.6270   2.2313   3.5375

          k =-0.5000-1.0000 0.0000 (   560 PWs)   bands (ev):

    -1.8805  -1.8805   1.9464   1.9464

          k =-0.7500-0.7500-0.2500 (   558 PWs)   bands (ev):

    -3.4124  -0.6270   2.2313   3.5375

          k = 0.2500-0.2500-0.2500 (   564 PWs)   bands (ev):

    -5.2607   1.7855   4.9308   4.9308

          k = 0.0000 0.0000-0.5000 (   560 PWs)   bands (ev):

    -4.9875   2.1224   3.8444   3.8444

          k = 0.2500-0.2500 0.2500 (   564 PWs)   bands (ev):

    -5.2607   1.7855   4.9308   4.9308

          k = 0.0000 0.0000 0.0000 (   537 PWs)   bands (ev):

    -6.0333   5.6649   5.6649   5.6649

          k =-0.2500-0.2500-0.2500 (   564 PWs)   bands (ev):

    -5.2607   1.7855   4.9308   4.9308

          k =-0.5000 0.0000-0.5000 (   554 PWs)   bands (ev):

    -4.0611   0.2420   2.0309   4.3822

          k =-0.5000 0.5000 0.5000 (   568 PWs)   bands (ev):

    -3.7921  -1.1523   4.5035   4.5035

          k =-0.7500 0.7500 0.2500 (   558 PWs)   bands (ev):

    -3.4124  -0.6270   2.2313   3.5375

          k = 0.0000 0.0000 0.5000 (   560 PWs)   bands (ev):

    -4.9875   2.1224   3.8444   3.8444

          k =-0.2500 0.2500 0.2500 (   564 PWs)   bands (ev):

    -5.2607   1.7855   4.9308   4.9308

          k =-0.7500 0.7500 0.2500 (   558 PWs)   bands (ev):

    -3.4124  -0.6270   2.2313   3.5375

          k =-1.0000 1.0000 0.0000 (   556 PWs)   bands (ev):

    -2.0309  -2.0309   2.9120   2.9120

          k =-0.7500 0.7500-0.2500 (   558 PWs)   bands (ev):

    -3.4124  -0.6270   2.2313   3.5375

          k =-1.0000 1.0000-0.5000 (   560 PWs)   bands (ev):

    -4.9875   2.1224   3.8444   3.8444

          k =-0.7500 0.2500 0.7500 (   558 PWs)   bands (ev):

    -3.4124  -0.6270   2.2313   3.5375

          k =-1.0000 0.5000 0.5000 (   554 PWs)   bands (ev):

    -4.0611   0.2420   2.0309   4.3822

          k = 0.7500 0.2500 0.7500 (   558 PWs)   bands (ev):

    -3.4124  -0.6270   2.2313   3.5375

          k = 0.5000 0.5000 0.5000 (   568 PWs)   bands (ev):

    -3.7921  -1.1523   4.5035   4.5035

          k = 0.7500-0.2500-0.7500 (   558 PWs)   bands (ev):

    -3.4124  -0.6270   2.2313   3.5375

          k = 0.5000 0.0000-1.0000 (   560 PWs)   bands (ev):

    -1.8805  -1.8805   1.9464   1.9464

          k =-0.5000 0.5000 0.0000 (   554 PWs)   bands (ev):

    -4.0611   0.2420   2.0309   4.3822

          k =-0.7500 0.7500-0.2500 (   558 PWs)   bands (ev):

    -3.4124  -0.6270   2.2313   3.5375

          k =-0.5000 0.0000 0.5000 (   554 PWs)   bands (ev):

    -4.0611   0.2420   2.0309   4.3822

          k =-0.7500 0.2500 0.2500 (   558 PWs)   bands (ev):

    -3.4124  -0.6270   2.2313   3.5375

     highest occupied level (ev):     5.6649

     Writing output data file ./tmp/_ph0/silicon.save/

     Ph                                                                         

     bravais-lattice index     =            2
     lattice parameter (alat)  =      10.4000  a.u.
     unit-cell volume          =     281.2160 (a.u.)^3
     number of atoms/cell      =            2
     number of atomic types    =            1
     kinetic-energy cut-off    =      24.0000  Ry
     charge density cut-off    =      96.0000  Ry
     convergence threshold     =      1.0E-16
     beta                      =       0.7000
     number of iterations used =            4
     Exchange-correlation= PZ
                           (   1   1   0   0   0   0   0)


     celldm(1)=   10.40000  celldm(2)=    0.00000  celldm(3)=    0.00000
     celldm(4)=    0.00000  celldm(5)=    0.00000  celldm(6)=    0.00000

     crystal axes: (cart. coord. in units of alat)
               a(1) = ( -0.5000  0.0000  0.5000 )  
               a(2) = (  0.0000  0.5000  0.5000 )  
               a(3) = ( -0.5000  0.5000  0.0000 )  

     reciprocal axes: (cart. coord. in units 2 pi/alat)
               b(1) = ( -1.0000 -1.0000  1.0000 )  
               b(2) = (  1.0000  1.0000  1.0000 )  
               b(3) = ( -1.0000  1.0000 -1.0000 )  


     Atoms inside the unit cell: 

     Cartesian axes

     site n.  atom      mass           positions (alat units)
        1     Si  28.0860   tau(    1) = (    0.00000    0.00000    0.00000  )
        2     Si  28.0860   tau(    2) = (    0.25000    0.25000    0.25000  )

     Computing dynamical matrix for 
                    q = (  -0.2500000   0.2500000  -0.2500000 )

      6 Sym.Ops. (no q -> -q+G )


     G cutoff =  263.0136  (   1120 G-vectors)     FFT grid: ( 24, 24, 24)
     number of k points=    40

     PseudoPot. # 1 for Si read from file:
     ../Si.pz-rrkj.UPF
     MD5 check sum: 884b380b739b48e9cd334294cddc9a8d
     Pseudo is Norm-conserving, Zval =  4.0
     Generated using "atomic" code by A. Dal Corso (espresso distribution)
     Using radial grid of 1141 points,  2 beta functions with: 
                l(1) =   0
                l(2) =   1

     Mode symmetry, C_3v (3m)   point group:


     Atomic displacements:
     There are    4 irreducible representations

     Representation     1      1 modes -  To be done

     Representation     2      1 modes -  To be done

     Representation     3      2 modes -  To be done

     Representation     4      2 modes -  To be done



     Alpha used in Ewald sum =   1.0000
     PHONON       :      7.80s CPU     10.51s WALL



     Representation #   1 mode #   1

     Self-consistent Calculation

      iter #   1 total cpu time :    10.7 secs   av.it.:   5.8
      thresh= 1.000E-02 alpha_mix =  0.700 |ddv_scf|^2 =  1.375E-03

      iter #   2 total cpu time :    11.0 secs   av.it.:   7.7
      thresh= 3.708E-03 alpha_mix =  0.700 |ddv_scf|^2 =  2.017E-02

      iter #   3 total cpu time :    11.2 secs   av.it.:   6.5
      thresh= 1.000E-02 alpha_mix =  0.700 |ddv_scf|^2 =  1.020E-06

      iter #   4 total cpu time :    11.6 secs   av.it.:   8.0
      thresh= 1.010E-04 alpha_mix =  0.700 |ddv_scf|^2 =  9.918E-08

      iter #   5 total cpu time :    11.9 secs   av.it.:   7.7
      thresh= 3.149E-05 alpha_mix =  0.700 |ddv_scf|^2 =  6.374E-10

      iter #   6 total cpu time :    12.1 secs   av.it.:   7.9
      thresh= 2.525E-06 alpha_mix =  0.700 |ddv_scf|^2 =  6.015E-10

      iter #   7 total cpu time :    12.4 secs   av.it.:   6.6
      thresh= 2.452E-06 alpha_mix =  0.700 |ddv_scf|^2 =  3.082E-11

      iter #   8 total cpu time :    12.7 secs   av.it.:   7.6
      thresh= 5.551E-07 alpha_mix =  0.700 |ddv_scf|^2 =  5.245E-13

      iter #   9 total cpu time :    13.0 secs   av.it.:   7.1
      thresh= 7.242E-08 alpha_mix =  0.700 |ddv_scf|^2 =  6.364E-15

      iter #  10 total cpu time :    13.3 secs   av.it.:   8.3
      thresh= 7.978E-09 alpha_mix =  0.700 |ddv_scf|^2 =  6.673E-15

      iter #  11 total cpu time :    13.6 secs   av.it.:   7.2
      thresh= 8.169E-09 alpha_mix =  0.700 |ddv_scf|^2 =  2.833E-17

     End of self-consistent calculation

     Convergence has been achieved 


     Representation #   2 mode #   2

     Self-consistent Calculation

      iter #   1 total cpu time :    13.8 secs   av.it.:   5.8
      thresh= 1.000E-02 alpha_mix =  0.700 |ddv_scf|^2 =  1.374E-03

      iter #   2 total cpu time :    14.2 secs   av.it.:   7.7
      thresh= 3.707E-03 alpha_mix =  0.700 |ddv_scf|^2 =  2.016E-02

      iter #   3 total cpu time :    14.5 secs   av.it.:   6.5
      thresh= 1.000E-02 alpha_mix =  0.700 |ddv_scf|^2 =  1.017E-06

      iter #   4 total cpu time :    14.8 secs   av.it.:   8.0
      thresh= 1.008E-04 alpha_mix =  0.700 |ddv_scf|^2 =  1.004E-07

      iter #   5 total cpu time :    15.1 secs   av.it.:   7.7
      thresh= 3.168E-05 alpha_mix =  0.700 |ddv_scf|^2 =  8.465E-10

      iter #   6 total cpu time :    15.4 secs   av.it.:   7.7
      thresh= 2.910E-06 alpha_mix =  0.700 |ddv_scf|^2 =  8.670E-10

      iter #   7 total cpu time :    16.0 secs   av.it.:   6.7
      thresh= 2.944E-06 alpha_mix =  0.700 |ddv_scf|^2 =  3.340E-11

      iter #   8 total cpu time :    16.5 secs   av.it.:   7.5
      thresh= 5.779E-07 alpha_mix =  0.700 |ddv_scf|^2 =  5.052E-13

      iter #   9 total cpu time :    16.9 secs   av.it.:   7.2
      thresh= 7.107E-08 alpha_mix =  0.700 |ddv_scf|^2 =  5.370E-15

      iter #  10 total cpu time :    17.2 secs   av.it.:   8.3
      thresh= 7.328E-09 alpha_mix =  0.700 |ddv_scf|^2 =  6.647E-15

      iter #  11 total cpu time :    17.6 secs   av.it.:   7.2
      thresh= 8.153E-09 alpha_mix =  0.700 |ddv_scf|^2 =  3.091E-17

     End of self-consistent calculation

     Convergence has been achieved 


     Representation #   3 modes #   3   4

     Self-consistent Calculation

      iter #   1 total cpu time :    18.0 secs   av.it.:   5.3
      thresh= 1.000E-02 alpha_mix =  0.700 |ddv_scf|^2 =  2.991E-07

      iter #   2 total cpu time :    18.9 secs   av.it.:   9.5
      thresh= 5.469E-05 alpha_mix =  0.700 |ddv_scf|^2 =  1.800E-08

      iter #   3 total cpu time :    19.6 secs   av.it.:   9.3
      thresh= 1.341E-05 alpha_mix =  0.700 |ddv_scf|^2 =  9.737E-11

      iter #   4 total cpu time :    20.2 secs   av.it.:   9.2
      thresh= 9.868E-07 alpha_mix =  0.700 |ddv_scf|^2 =  6.012E-12

      iter #   5 total cpu time :    20.8 secs   av.it.:   9.2
      thresh= 2.452E-07 alpha_mix =  0.700 |ddv_scf|^2 =  1.171E-14

      iter #   6 total cpu time :    21.5 secs   av.it.:   9.4
      thresh= 1.082E-08 alpha_mix =  0.700 |ddv_scf|^2 =  1.769E-16

      iter #   7 total cpu time :    22.2 secs   av.it.:   9.8
      thresh= 1.330E-09 alpha_mix =  0.700 |ddv_scf|^2 =  1.070E-18

     End of self-consistent calculation

     Convergence has been achieved 


     Representation #   4 modes #   5   6

     Self-consistent Calculation

      iter #   1 total cpu time :    22.8 secs   av.it.:   5.2
      thresh= 1.000E-02 alpha_mix =  0.700 |ddv_scf|^2 =  2.991E-07

      iter #   2 total cpu time :    23.7 secs   av.it.:   9.5
      thresh= 5.469E-05 alpha_mix =  0.700 |ddv_scf|^2 =  1.798E-08

      iter #   3 total cpu time :    24.5 secs   av.it.:   9.2
      thresh= 1.341E-05 alpha_mix =  0.700 |ddv_scf|^2 =  9.737E-11

      iter #   4 total cpu time :    25.4 secs   av.it.:   9.2
      thresh= 9.868E-07 alpha_mix =  0.700 |ddv_scf|^2 =  6.014E-12

      iter #   5 total cpu time :    26.3 secs   av.it.:   9.2
      thresh= 2.452E-07 alpha_mix =  0.700 |ddv_scf|^2 =  1.152E-14

      iter #   6 total cpu time :    28.2 secs   av.it.:   9.5
      thresh= 1.074E-08 alpha_mix =  0.700 |ddv_scf|^2 =  1.784E-16

      iter #   7 total cpu time :    30.0 secs   av.it.:   9.7
      thresh= 1.336E-09 alpha_mix =  0.700 |ddv_scf|^2 =  1.011E-18

     End of self-consistent calculation

     Convergence has been achieved 

     Number of q in the star =    8
     List of q in the star:
          1  -0.250000000   0.250000000  -0.250000000
          2   0.250000000  -0.250000000  -0.250000000
          3   0.250000000  -0.250000000   0.250000000
          4   0.250000000   0.250000000   0.250000000
          5  -0.250000000  -0.250000000  -0.250000000
          6  -0.250000000  -0.250000000   0.250000000
          7  -0.250000000   0.250000000   0.250000000
          8   0.250000000   0.250000000  -0.250000000

     Diagonalizing the dynamical matrix

     q = (   -0.250000000   0.250000000  -0.250000000 ) 

 **************************************************************************
     freq (    1) =       2.885011 [THz] =      96.233594 [cm-1]
     freq (    2) =       2.885011 [THz] =      96.233594 [cm-1]
     freq (    3) =       6.435573 [THz] =     214.667592 [cm-1]
     freq (    4) =      13.861637 [THz] =     462.374454 [cm-1]
     freq (    5) =      13.955087 [THz] =     465.491605 [cm-1]
     freq (    6) =      13.955087 [THz] =     465.491605 [cm-1]
 **************************************************************************

     Mode symmetry, C_3v (3m)   point group:

     freq (   1-   2) =         96.2  [cm-1]   --> E    L_3           
     freq (   3-   3) =        214.7  [cm-1]   --> A_1  L_1           
     freq (   4-   4) =        462.4  [cm-1]   --> A_1  L_1           
     freq (   5-   6) =        465.5  [cm-1]   --> E    L_3           

     Calculation of q =    0.5000000  -0.5000000   0.5000000

     Parallelization info
     --------------------
     sticks:   dense  smooth     PW     G-vecs:    dense   smooth      PW
     Min          90      90     34                 1118     1118     266
     Max          91      91     35                 1120     1120     267
     Sum         361     361    139                 4477     4477    1067

     Using Slab Decomposition


     Title: 
     Ph                                                                         


     bravais-lattice index     =            2
     lattice parameter (alat)  =      10.4000  a.u.
     unit-cell volume          =     281.2160 (a.u.)^3
     number of atoms/cell      =            2
     number of atomic types    =            1
     number of electrons       =         8.00
     number of Kohn-Sham states=            4
     kinetic-energy cutoff     =      24.0000  Ry
     charge density cutoff     =      96.0000  Ry
     Exchange-correlation= PZ
                           (   1   1   0   0   0   0   0)

     celldm(1)=  10.400000  celldm(2)=   0.000000  celldm(3)=   0.000000
     celldm(4)=   0.000000  celldm(5)=   0.000000  celldm(6)=   0.000000

     crystal axes: (cart. coord. in units of alat)
               a(1) = (  -0.500000   0.000000   0.500000 )  
               a(2) = (   0.000000   0.500000   0.500000 )  
               a(3) = (  -0.500000   0.500000   0.000000 )  

     reciprocal axes: (cart. coord. in units 2 pi/alat)
               b(1) = ( -1.000000 -1.000000  1.000000 )  
               b(2) = (  1.000000  1.000000  1.000000 )  
               b(3) = ( -1.000000  1.000000 -1.000000 )  


     PseudoPot. # 1 for Si read from file:
     ../Si.pz-rrkj.UPF
     MD5 check sum: 884b380b739b48e9cd334294cddc9a8d
     Pseudo is Norm-conserving, Zval =  4.0
     Generated using "atomic" code by A. Dal Corso (espresso distribution)
     Using radial grid of 1141 points,  2 beta functions with: 
                l(1) =   0
                l(2) =   1

     atomic species   valence    mass     pseudopotential
        Si             4.00    28.08600     Si( 1.00)

     48 Sym. Ops., with inversion, found



   Cartesian axes

     site n.     atom                  positions (alat units)
         1           Si  tau(   1) = (   0.0000000   0.0000000   0.0000000  )
         2           Si  tau(   2) = (   0.2500000   0.2500000   0.2500000  )

     number of k points=    26
                       cart. coord. in units 2pi/alat
        k(    1) = (   0.0000000   0.0000000   0.0000000), wk =   0.0312500
        k(    2) = (   0.5000000  -0.5000000   0.5000000), wk =   0.0000000
        k(    3) = (  -0.2500000   0.2500000  -0.2500000), wk =   0.0625000
        k(    4) = (   0.2500000  -0.2500000   0.2500000), wk =   0.0000000
        k(    5) = (   0.5000000  -0.5000000   0.5000000), wk =   0.0312500
        k(    6) = (   1.0000000  -1.0000000   1.0000000), wk =   0.0000000
        k(    7) = (   0.0000000   0.5000000   0.0000000), wk =   0.1875000
        k(    8) = (   0.5000000   0.0000000   0.5000000), wk =   0.0000000
        k(    9) = (   0.7500000  -0.2500000   0.7500000), wk =   0.1875000
        k(   10) = (   1.2500000  -0.7500000   1.2500000), wk =   0.0000000
        k(   11) = (   0.5000000   0.0000000   0.5000000), wk =   0.1875000
        k(   12) = (   1.0000000  -0.5000000   1.0000000), wk =   0.0000000
        k(   13) = (   0.0000000  -1.0000000   0.0000000), wk =   0.0937500
        k(   14) = (   0.5000000  -1.5000000   0.5000000), wk =   0.0000000
        k(   15) = (  -0.5000000  -1.0000000   0.0000000), wk =   0.1875000
        k(   16) = (   0.0000000  -1.5000000   0.5000000), wk =   0.0000000
        k(   17) = (  -0.2500000  -0.2500000  -0.2500000), wk =   0.1875000
        k(   18) = (   0.2500000  -0.7500000   0.2500000), wk =   0.0000000
        k(   19) = (   0.5000000   0.5000000   0.5000000), wk =   0.0937500
        k(   20) = (   1.0000000   0.0000000   1.0000000), wk =   0.0000000
        k(   21) = (   0.7500000   0.2500000   0.7500000), wk =   0.1875000
        k(   22) = (   1.2500000  -0.2500000   1.2500000), wk =   0.0000000
        k(   23) = (  -0.7500000   0.2500000   0.7500000), wk =   0.3750000
        k(   24) = (  -0.2500000  -0.2500000   1.2500000), wk =   0.0000000
        k(   25) = (  -0.5000000   0.0000000   0.5000000), wk =   0.1875000
        k(   26) = (   0.0000000  -0.5000000   1.0000000), wk =   0.0000000

     Dense  grid:     4477 G-vectors     FFT dimensions: (  24,  24,  24)

     Estimated max dynamical RAM per process >       0.56 MB

     Estimated total dynamical RAM >       2.25 MB

     The potential is recalculated from file :
     ./tmp/_ph0/silicon.save/charge-density

     Starting wfcs are    8 atomic wfcs

     Band Structure Calculation
     Davidson diagonalization with overlap

     ethr =  1.25E-10,  avg # of iterations =  9.5

     total cpu time spent up to now is        1.6 secs

     End of band structure calculation

          k = 0.0000 0.0000 0.0000 (   537 PWs)   bands (ev):

    -6.0333   5.6649   5.6649   5.6649

          k = 0.5000-0.5000 0.5000 (   568 PWs)   bands (ev):

    -3.7921  -1.1523   4.5035   4.5035

          k =-0.2500 0.2500-0.2500 (   564 PWs)   bands (ev):

    -5.2607   1.7855   4.9308   4.9308

          k = 0.2500-0.2500 0.2500 (   564 PWs)   bands (ev):

    -5.2607   1.7855   4.9308   4.9308

          k = 0.5000-0.5000 0.5000 (   568 PWs)   bands (ev):

    -3.7921  -1.1523   4.5035   4.5035

          k = 1.0000-1.0000 1.0000 (   537 PWs)   bands (ev):

    -6.0333   5.6649   5.6649   5.6649

          k = 0.0000 0.5000 0.0000 (   560 PWs)   bands (ev):

    -4.9875   2.1224   3.8444   3.8444

          k = 0.5000 0.0000 0.5000 (   554 PWs)   bands (ev):

    -4.0611   0.2420   2.0309   4.3822

          k = 0.7500-0.2500 0.7500 (   558 PWs)   bands (ev):

    -3.4124  -0.6270   2.2313   3.5375

          k = 1.2500-0.7500 1.2500 (   564 PWs)   bands (ev):

    -5.2607   1.7855   4.9308   4.9308

          k = 0.5000 0.0000 0.5000 (   554 PWs)   bands (ev):

    -4.0611   0.2420   2.0309   4.3822

          k = 1.0000-0.5000 1.0000 (   560 PWs)   bands (ev):

    -4.9875   2.1224   3.8444   3.8444

          k = 0.0000-1.0000 0.0000 (   556 PWs)   bands (ev):

    -2.0309  -2.0309   2.9120   2.9120

          k = 0.5000-1.5000 0.5000 (   568 PWs)   bands (ev):

    -3.7921  -1.1523   4.5035   4.5035

          k =-0.5000-1.0000 0.0000 (   560 PWs)   bands (ev):

    -1.8805  -1.8805   1.9464   1.9464

          k = 0.0000-1.5000 0.5000 (   554 PWs)   bands (ev):

    -4.0611   0.2420   2.0309   4.3822

          k =-0.2500-0.2500-0.2500 (   564 PWs)   bands (ev):

    -5.2607   1.7855   4.9308   4.9308

          k = 0.2500-0.7500 0.2500 (   558 PWs)   bands (ev):

    -3.4124  -0.6270   2.2313   3.5375

          k = 0.5000 0.5000 0.5000 (   568 PWs)   bands (ev):

    -3.7921  -1.1523   4.5035   4.5035

          k = 1.0000 0.0000 1.0000 (   556 PWs)   bands (ev):

    -2.0309  -2.0309   2.9120   2.9120

          k = 0.7500 0.2500 0.7500 (   558 PWs)   bands (ev):

    -3.4124  -0.6270   2.2313   3.5375

          k = 1.2500-0.2500 1.2500 (   558 PWs)   bands (ev):

    -3.4124  -0.6270   2.2313   3.5375

          k =-0.7500 0.2500 0.7500 (   558 PWs)   bands (ev):

    -3.4124  -0.6270   2.2313   3.5375

          k =-0.2500-0.2500 1.2500 (   558 PWs)   bands (ev):

    -3.4124  -0.6270   2.2313   3.5375

          k =-0.5000 0.0000 0.5000 (   554 PWs)   bands (ev):

    -4.0611   0.2420   2.0309   4.3822

          k = 0.0000-0.5000 1.0000 (   560 PWs)   bands (ev):

    -1.8805  -1.8805   1.9464   1.9464

     highest occupied level (ev):     5.6649

     Writing output data file ./tmp/_ph0/silicon.save/

     Ph                                                                         

     bravais-lattice index     =            2
     lattice parameter (alat)  =      10.4000  a.u.
     unit-cell volume          =     281.2160 (a.u.)^3
     number of atoms/cell      =            2
     number of atomic types    =            1
     kinetic-energy cut-off    =      24.0000  Ry
     charge density cut-off    =      96.0000  Ry
     convergence threshold     =      1.0E-16
     beta                      =       0.7000
     number of iterations used =            4
     Exchange-correlation= PZ
                           (   1   1   0   0   0   0   0)


     celldm(1)=   10.40000  celldm(2)=    0.00000  celldm(3)=    0.00000
     celldm(4)=    0.00000  celldm(5)=    0.00000  celldm(6)=    0.00000

     crystal axes: (cart. coord. in units of alat)
               a(1) = ( -0.5000  0.0000  0.5000 )  
               a(2) = (  0.0000  0.5000  0.5000 )  
               a(3) = ( -0.5000  0.5000  0.0000 )  

     reciprocal axes: (cart. coord. in units 2 pi/alat)
               b(1) = ( -1.0000 -1.0000  1.0000 )  
               b(2) = (  1.0000  1.0000  1.0000 )  
               b(3) = ( -1.0000  1.0000 -1.0000 )  


     Atoms inside the unit cell: 

     Cartesian axes

     site n.  atom      mass           positions (alat units)
        1     Si  28.0860   tau(    1) = (    0.00000    0.00000    0.00000  )
        2     Si  28.0860   tau(    2) = (    0.25000    0.25000    0.25000  )

     Computing dynamical matrix for 
                    q = (   0.5000000  -0.5000000   0.5000000 )

     13 Sym.Ops. (with q -> -q+G )


     G cutoff =  263.0136  (   1120 G-vectors)     FFT grid: ( 24, 24, 24)
     number of k points=    26

     PseudoPot. # 1 for Si read from file:
     ../Si.pz-rrkj.UPF
     MD5 check sum: 884b380b739b48e9cd334294cddc9a8d
     Pseudo is Norm-conserving, Zval =  4.0
     Generated using "atomic" code by A. Dal Corso (espresso distribution)
     Using radial grid of 1141 points,  2 beta functions with: 
                l(1) =   0
                l(2) =   1


     Atomic displacements:
     There are    4 irreducible representations

     Representation     1      1 modes -  To be done

     Representation     2      1 modes -  To be done

     Representation     3      2 modes -  To be done

     Representation     4      2 modes -  To be done



     Alpha used in Ewald sum =   1.0000
     PHONON       :     22.72s CPU     30.97s WALL



     Representation #   1 mode #   1

     Self-consistent Calculation

      iter #   1 total cpu time :    31.2 secs   av.it.:   4.8
      thresh= 1.000E-02 alpha_mix =  0.700 |ddv_scf|^2 =  1.250E-05

      iter #   2 total cpu time :    31.5 secs   av.it.:   7.6
      thresh= 3.535E-04 alpha_mix =  0.700 |ddv_scf|^2 =  1.047E-05

      iter #   3 total cpu time :    31.8 secs   av.it.:   7.1
      thresh= 3.236E-04 alpha_mix =  0.700 |ddv_scf|^2 =  2.204E-09

      iter #   4 total cpu time :    32.1 secs   av.it.:   7.3
      thresh= 4.695E-06 alpha_mix =  0.700 |ddv_scf|^2 =  2.810E-11

      iter #   5 total cpu time :    32.4 secs   av.it.:   7.1
      thresh= 5.301E-07 alpha_mix =  0.700 |ddv_scf|^2 =  1.882E-13

      iter #   6 total cpu time :    32.7 secs   av.it.:   7.3
      thresh= 4.338E-08 alpha_mix =  0.700 |ddv_scf|^2 =  2.101E-15

      iter #   7 total cpu time :    33.0 secs   av.it.:   7.4
      thresh= 4.584E-09 alpha_mix =  0.700 |ddv_scf|^2 =  8.914E-18

     End of self-consistent calculation

     Convergence has been achieved 


     Representation #   2 mode #   2

     Self-consistent Calculation

      iter #   1 total cpu time :    33.3 secs   av.it.:   5.9
      thresh= 1.000E-02 alpha_mix =  0.700 |ddv_scf|^2 =  2.257E-04

      iter #   2 total cpu time :    33.6 secs   av.it.:   8.0
      thresh= 1.502E-03 alpha_mix =  0.700 |ddv_scf|^2 =  7.770E-04

      iter #   3 total cpu time :    33.9 secs   av.it.:   7.1
      thresh= 2.788E-03 alpha_mix =  0.700 |ddv_scf|^2 =  3.045E-08

      iter #   4 total cpu time :    34.2 secs   av.it.:   8.4
      thresh= 1.745E-05 alpha_mix =  0.700 |ddv_scf|^2 =  8.353E-10

      iter #   5 total cpu time :    34.7 secs   av.it.:   8.3
      thresh= 2.890E-06 alpha_mix =  0.700 |ddv_scf|^2 =  5.365E-11

      iter #   6 total cpu time :    35.0 secs   av.it.:   7.5
      thresh= 7.325E-07 alpha_mix =  0.700 |ddv_scf|^2 =  4.313E-14

      iter #   7 total cpu time :    35.3 secs   av.it.:   7.8
      thresh= 2.077E-08 alpha_mix =  0.700 |ddv_scf|^2 =  3.006E-15

      iter #   8 total cpu time :    35.8 secs   av.it.:   7.7
      thresh= 5.483E-09 alpha_mix =  0.700 |ddv_scf|^2 =  6.033E-17

     End of self-consistent calculation

     Convergence has been achieved 


     Representation #   3 modes #   3   4

     Self-consistent Calculation

      iter #   1 total cpu time :    36.2 secs   av.it.:   5.0
      thresh= 1.000E-02 alpha_mix =  0.700 |ddv_scf|^2 =  6.726E-07

      iter #   2 total cpu time :    36.6 secs   av.it.:   8.8
      thresh= 8.201E-05 alpha_mix =  0.700 |ddv_scf|^2 =  6.198E-08

      iter #   3 total cpu time :    37.1 secs   av.it.:   8.8
      thresh= 2.490E-05 alpha_mix =  0.700 |ddv_scf|^2 =  8.685E-11

      iter #   4 total cpu time :    37.8 secs   av.it.:   8.3
      thresh= 9.319E-07 alpha_mix =  0.700 |ddv_scf|^2 =  2.913E-13

      iter #   5 total cpu time :    38.3 secs   av.it.:   8.7
      thresh= 5.397E-08 alpha_mix =  0.700 |ddv_scf|^2 =  1.045E-15

      iter #   6 total cpu time :    39.0 secs   av.it.:   8.9
      thresh= 3.233E-09 alpha_mix =  0.700 |ddv_scf|^2 =  2.177E-17

     End of self-consistent calculation

     Convergence has been achieved 


     Representation #   4 modes #   5   6

     Self-consistent Calculation

      iter #   1 total cpu time :    39.5 secs   av.it.:   4.8
      thresh= 1.000E-02 alpha_mix =  0.700 |ddv_scf|^2 =  8.177E-08

      iter #   2 total cpu time :    40.2 secs   av.it.:   9.2
      thresh= 2.859E-05 alpha_mix =  0.700 |ddv_scf|^2 =  1.972E-09

      iter #   3 total cpu time :    40.7 secs   av.it.:   9.0
      thresh= 4.441E-06 alpha_mix =  0.700 |ddv_scf|^2 =  6.226E-11

      iter #   4 total cpu time :    41.4 secs   av.it.:   8.8
      thresh= 7.891E-07 alpha_mix =  0.700 |ddv_scf|^2 =  1.028E-13

      iter #   5 total cpu time :    42.1 secs   av.it.:   9.2
      thresh= 3.206E-08 alpha_mix =  0.700 |ddv_scf|^2 =  1.237E-15

      iter #   6 total cpu time :    43.0 secs   av.it.:   9.3
      thresh= 3.517E-09 alpha_mix =  0.700 |ddv_scf|^2 =  6.679E-18

     End of self-consistent calculation

     Convergence has been achieved 

     Number of q in the star =    4
     List of q in the star:
          1   0.500000000  -0.500000000   0.500000000
          2   0.500000000   0.500000000   0.500000000
          3  -0.500000000   0.500000000   0.500000000
          4   0.500000000   0.500000000  -0.500000000

     Diagonalizing the dynamical matrix

     q = (    0.500000000  -0.500000000   0.500000000 ) 

 **************************************************************************
     freq (    1) =       3.387165 [THz] =     112.983678 [cm-1]
     freq (    2) =       3.387165 [THz] =     112.983678 [cm-1]
     freq (    3) =      10.908708 [THz] =     363.875345 [cm-1]
     freq (    4) =      11.197733 [THz] =     373.516177 [cm-1]
     freq (    5) =      13.559325 [THz] =     452.290397 [cm-1]
     freq (    6) =      13.559325 [THz] =     452.290397 [cm-1]
 **************************************************************************

     Calculation of q =    0.0000000   0.5000000   0.0000000

     Parallelization info
     --------------------
     sticks:   dense  smooth     PW     G-vecs:    dense   smooth      PW
     Min          90      90     30                 1118     1118     234
     Max          91      91     31                 1120     1120     238
     Sum         361     361    121                 4477     4477     941

     Using Slab Decomposition


     Title: 
     Ph                                                                         


     bravais-lattice index     =            2
     lattice parameter (alat)  =      10.4000  a.u.
     unit-cell volume          =     281.2160 (a.u.)^3
     number of atoms/cell      =            2
     number of atomic types    =            1
     number of electrons       =         8.00
     number of Kohn-Sham states=            4
     kinetic-energy cutoff     =      24.0000  Ry
     charge density cutoff     =      96.0000  Ry
     Exchange-correlation= PZ
                           (   1   1   0   0   0   0   0)

     celldm(1)=  10.400000  celldm(2)=   0.000000  celldm(3)=   0.000000
     celldm(4)=   0.000000  celldm(5)=   0.000000  celldm(6)=   0.000000

     crystal axes: (cart. coord. in units of alat)
               a(1) = (  -0.500000   0.000000   0.500000 )  
               a(2) = (   0.000000   0.500000   0.500000 )  
               a(3) = (  -0.500000   0.500000   0.000000 )  

     reciprocal axes: (cart. coord. in units 2 pi/alat)
               b(1) = ( -1.000000 -1.000000  1.000000 )  
               b(2) = (  1.000000  1.000000  1.000000 )  
               b(3) = ( -1.000000  1.000000 -1.000000 )  


     PseudoPot. # 1 for Si read from file:
     ../Si.pz-rrkj.UPF
     MD5 check sum: 884b380b739b48e9cd334294cddc9a8d
     Pseudo is Norm-conserving, Zval =  4.0
     Generated using "atomic" code by A. Dal Corso (espresso distribution)
     Using radial grid of 1141 points,  2 beta functions with: 
                l(1) =   0
                l(2) =   1

     atomic species   valence    mass     pseudopotential
        Si             4.00    28.08600     Si( 1.00)

     48 Sym. Ops., with inversion, found



   Cartesian axes

     site n.     atom                  positions (alat units)
         1           Si  tau(   1) = (   0.0000000   0.0000000   0.0000000  )
         2           Si  tau(   2) = (   0.2500000   0.2500000   0.2500000  )

     number of k points=    36
                       cart. coord. in units 2pi/alat
        k(    1) = (   0.0000000   0.0000000   0.0000000), wk =   0.0312500
        k(    2) = (   0.0000000   0.5000000   0.0000000), wk =   0.0000000
        k(    3) = (  -0.2500000   0.2500000  -0.2500000), wk =   0.1250000
        k(    4) = (  -0.2500000   0.7500000  -0.2500000), wk =   0.0000000
        k(    5) = (   0.5000000  -0.5000000   0.5000000), wk =   0.1250000
        k(    6) = (   0.5000000   0.0000000   0.5000000), wk =   0.0000000
        k(    7) = (   0.0000000   0.5000000   0.0000000), wk =   0.0312500
        k(    8) = (   0.0000000   1.0000000   0.0000000), wk =   0.0000000
        k(    9) = (   0.7500000  -0.2500000   0.7500000), wk =   0.1250000
        k(   10) = (   0.7500000   0.2500000   0.7500000), wk =   0.0000000
        k(   11) = (   0.5000000   0.0000000   0.5000000), wk =   0.1250000
        k(   12) = (   0.5000000   0.5000000   0.5000000), wk =   0.0000000
        k(   13) = (   0.0000000  -1.0000000   0.0000000), wk =   0.0312500
        k(   14) = (   0.0000000  -0.5000000   0.0000000), wk =   0.0000000
        k(   15) = (  -0.5000000  -1.0000000   0.0000000), wk =   0.1250000
        k(   16) = (  -0.5000000  -0.5000000   0.0000000), wk =   0.0000000
        k(   17) = (   0.2500000  -0.2500000   0.2500000), wk =   0.1250000
        k(   18) = (   0.2500000   0.2500000   0.2500000), wk =   0.0000000
        k(   19) = (   0.0000000  -0.5000000   0.0000000), wk =   0.0312500
        k(   20) = (   0.0000000   0.0000000   0.0000000), wk =   0.0000000
        k(   21) = (   0.5000000   0.0000000   0.0000000), wk =   0.1250000
        k(   22) = (   0.5000000   0.5000000   0.0000000), wk =   0.0000000
        k(   23) = (  -0.7500000   0.2500000  -0.7500000), wk =   0.1250000
        k(   24) = (  -0.7500000   0.7500000  -0.7500000), wk =   0.0000000
        k(   25) = (  -0.2500000   0.7500000  -0.7500000), wk =   0.2500000
        k(   26) = (  -0.2500000   1.2500000  -0.7500000), wk =   0.0000000
        k(   27) = (  -0.2500000  -0.7500000  -0.7500000), wk =   0.2500000
        k(   28) = (  -0.2500000  -0.2500000  -0.7500000), wk =   0.0000000
        k(   29) = (   0.0000000   0.5000000  -0.5000000), wk =   0.1250000
        k(   30) = (   0.0000000   1.0000000  -0.5000000), wk =   0.0000000
        k(   31) = (   0.0000000  -0.5000000  -0.5000000), wk =   0.1250000
        k(   32) = (   0.0000000   0.0000000  -0.5000000), wk =   0.0000000
        k(   33) = (  -1.0000000   0.0000000   0.0000000), wk =   0.0625000
        k(   34) = (  -1.0000000   0.5000000   0.0000000), wk =   0.0000000
        k(   35) = (  -1.0000000  -0.5000000   0.0000000), wk =   0.0625000
        k(   36) = (  -1.0000000   0.0000000   0.0000000), wk =   0.0000000

     Dense  grid:     4477 G-vectors     FFT dimensions: (  24,  24,  24)

     Estimated max dynamical RAM per process >       0.56 MB

     Estimated total dynamical RAM >       2.25 MB

     The potential is recalculated from file :
     ./tmp/_ph0/silicon.save/charge-density

     Starting wfcs are    8 atomic wfcs

     Band Structure Calculation
     Davidson diagonalization with overlap

     ethr =  1.25E-10,  avg # of iterations =  9.7

     total cpu time spent up to now is        2.4 secs

     End of band structure calculation

          k = 0.0000 0.0000 0.0000 (   537 PWs)   bands (ev):

    -6.0333   5.6649   5.6649   5.6649

          k = 0.0000 0.5000 0.0000 (   560 PWs)   bands (ev):

    -4.9875   2.1224   3.8444   3.8444

          k =-0.2500 0.2500-0.2500 (   564 PWs)   bands (ev):

    -5.2607   1.7855   4.9308   4.9308

          k =-0.2500 0.7500-0.2500 (   558 PWs)   bands (ev):

    -3.4124  -0.6270   2.2313   3.5375

          k = 0.5000-0.5000 0.5000 (   568 PWs)   bands (ev):

    -3.7921  -1.1523   4.5035   4.5035

          k = 0.5000 0.0000 0.5000 (   554 PWs)   bands (ev):

    -4.0611   0.2420   2.0309   4.3822

          k = 0.0000 0.5000 0.0000 (   560 PWs)   bands (ev):

    -4.9875   2.1224   3.8444   3.8444

          k = 0.0000 1.0000 0.0000 (   556 PWs)   bands (ev):

    -2.0309  -2.0309   2.9120   2.9120

          k = 0.7500-0.2500 0.7500 (   558 PWs)   bands (ev):

    -3.4124  -0.6270   2.2313   3.5375

          k = 0.7500 0.2500 0.7500 (   558 PWs)   bands (ev):

    -3.4124  -0.6270   2.2313   3.5375

          k = 0.5000 0.0000 0.5000 (   554 PWs)   bands (ev):

    -4.0611   0.2420   2.0309   4.3822

          k = 0.5000 0.5000 0.5000 (   568 PWs)   bands (ev):

    -3.7921  -1.1523   4.5035   4.5035

          k = 0.0000-1.0000 0.0000 (   556 PWs)   bands (ev):

    -2.0309  -2.0309   2.9120   2.9120

          k = 0.0000-0.5000 0.0000 (   560 PWs)   bands (ev):

    -4.9875   2.1224   3.8444   3.8444

          k =-0.5000-1.0000 0.0000 (   560 PWs)   bands (ev):

    -1.8805  -1.8805   1.9464   1.9464

          k =-0.5000-0.5000 0.0000 (   554 PWs)   bands (ev):

    -4.0611   0.2420   2.0309   4.3822

          k = 0.2500-0.2500 0.2500 (   564 PWs)   bands (ev):

    -5.2607   1.7855   4.9308   4.9308

          k = 0.2500 0.2500 0.2500 (   564 PWs)   bands (ev):

    -5.2607   1.7855   4.9308   4.9308

          k = 0.0000-0.5000 0.0000 (   560 PWs)   bands (ev):

    -4.9875   2.1224   3.8444   3.8444

          k = 0.0000 0.0000 0.0000 (   537 PWs)   bands (ev):

    -6.0333   5.6649   5.6649   5.6649

          k = 0.5000 0.0000 0.0000 (   560 PWs)   bands (ev):

    -4.9875   2.1224   3.8444   3.8444

          k = 0.5000 0.5000 0.0000 (   554 PWs)   bands (ev):

    -4.0611   0.2420   2.0309   4.3822

          k =-0.7500 0.2500-0.7500 (   558 PWs)   bands (ev):

    -3.4124  -0.6270   2.2313   3.5375

          k =-0.7500 0.7500-0.7500 (   564 PWs)   bands (ev):

    -5.2607   1.7855   4.9308   4.9308

          k =-0.2500 0.7500-0.7500 (   558 PWs)   bands (ev):

    -3.4124  -0.6270   2.2313   3.5375

          k =-0.2500 1.2500-0.7500 (   558 PWs)   bands (ev):

    -3.4124  -0.6270   2.2313   3.5375

          k =-0.2500-0.7500-0.7500 (   558 PWs)   bands (ev):

    -3.4124  -0.6270   2.2313   3.5375

          k =-0.2500-0.2500-0.7500 (   558 PWs)   bands (ev):

    -3.4124  -0.6270   2.2313   3.5375

          k = 0.0000 0.5000-0.5000 (   554 PWs)   bands (ev):

    -4.0611   0.2420   2.0309   4.3822

          k = 0.0000 1.0000-0.5000 (   560 PWs)   bands (ev):

    -1.8805  -1.8805   1.9464   1.9464

          k = 0.0000-0.5000-0.5000 (   554 PWs)   bands (ev):

    -4.0611   0.2420   2.0309   4.3822

          k = 0.0000 0.0000-0.5000 (   560 PWs)   bands (ev):

    -4.9875   2.1224   3.8444   3.8444

          k =-1.0000 0.0000 0.0000 (   556 PWs)   bands (ev):

    -2.0309  -2.0309   2.9120   2.9120

          k =-1.0000 0.5000 0.0000 (   560 PWs)   bands (ev):

    -1.8805  -1.8805   1.9464   1.9464

          k =-1.0000-0.5000 0.0000 (   560 PWs)   bands (ev):

    -1.8805  -1.8805   1.9464   1.9464

          k =-1.0000 0.0000 0.0000 (   556 PWs)   bands (ev):

    -2.0309  -2.0309   2.9120   2.9120

     highest occupied level (ev):     5.6649

     Writing output data file ./tmp/_ph0/silicon.save/

     Ph                                                                         

     bravais-lattice index     =            2
     lattice parameter (alat)  =      10.4000  a.u.
     unit-cell volume          =     281.2160 (a.u.)^3
     number of atoms/cell      =            2
     number of atomic types    =            1
     kinetic-energy cut-off    =      24.0000  Ry
     charge density cut-off    =      96.0000  Ry
     convergence threshold     =      1.0E-16
     beta                      =       0.7000
     number of iterations used =            4
     Exchange-correlation= PZ
                           (   1   1   0   0   0   0   0)


     celldm(1)=   10.40000  celldm(2)=    0.00000  celldm(3)=    0.00000
     celldm(4)=    0.00000  celldm(5)=    0.00000  celldm(6)=    0.00000

     crystal axes: (cart. coord. in units of alat)
               a(1) = ( -0.5000  0.0000  0.5000 )  
               a(2) = (  0.0000  0.5000  0.5000 )  
               a(3) = ( -0.5000  0.5000  0.0000 )  

     reciprocal axes: (cart. coord. in units 2 pi/alat)
               b(1) = ( -1.0000 -1.0000  1.0000 )  
               b(2) = (  1.0000  1.0000  1.0000 )  
               b(3) = ( -1.0000  1.0000 -1.0000 )  


     Atoms inside the unit cell: 

     Cartesian axes

     site n.  atom      mass           positions (alat units)
        1     Si  28.0860   tau(    1) = (    0.00000    0.00000    0.00000  )
        2     Si  28.0860   tau(    2) = (    0.25000    0.25000    0.25000  )

     Computing dynamical matrix for 
                    q = (   0.0000000   0.5000000   0.0000000 )

      8 Sym.Ops. (no q -> -q+G )


     G cutoff =  263.0136  (   1120 G-vectors)     FFT grid: ( 24, 24, 24)
     number of k points=    36

     PseudoPot. # 1 for Si read from file:
     ../Si.pz-rrkj.UPF
     MD5 check sum: 884b380b739b48e9cd334294cddc9a8d
     Pseudo is Norm-conserving, Zval =  4.0
     Generated using "atomic" code by A. Dal Corso (espresso distribution)
     Using radial grid of 1141 points,  2 beta functions with: 
                l(1) =   0
                l(2) =   1

     Mode symmetry, C_4v (4mm)  point group:


     Atomic displacements:
     There are    4 irreducible representations

     Representation     1      1 modes -  To be done

     Representation     2      1 modes -  To be done

     Representation     3      2 modes -  To be done

     Representation     4      2 modes -  To be done



     Alpha used in Ewald sum =   1.0000
     PHONON       :     31.71s CPU     43.85s WALL



     Representation #   1 mode #   1

     Self-consistent Calculation

      iter #   1 total cpu time :    44.1 secs   av.it.:   5.7
      thresh= 1.000E-02 alpha_mix =  0.700 |ddv_scf|^2 =  1.621E-03

      iter #   2 total cpu time :    44.4 secs   av.it.:   7.4
      thresh= 4.027E-03 alpha_mix =  0.700 |ddv_scf|^2 =  2.022E-02

      iter #   3 total cpu time :    44.8 secs   av.it.:   6.4
      thresh= 1.000E-02 alpha_mix =  0.700 |ddv_scf|^2 =  1.697E-08

      iter #   4 total cpu time :    45.3 secs   av.it.:   8.4
      thresh= 1.303E-05 alpha_mix =  0.700 |ddv_scf|^2 =  1.170E-09

      iter #   5 total cpu time :    45.8 secs   av.it.:   8.3
      thresh= 3.421E-06 alpha_mix =  0.700 |ddv_scf|^2 =  3.002E-11

      iter #   6 total cpu time :    46.1 secs   av.it.:   7.5
      thresh= 5.479E-07 alpha_mix =  0.700 |ddv_scf|^2 =  2.316E-12

      iter #   7 total cpu time :    46.4 secs   av.it.:   6.2
      thresh= 1.522E-07 alpha_mix =  0.700 |ddv_scf|^2 =  1.655E-14

      iter #   8 total cpu time :    46.7 secs   av.it.:   6.7
      thresh= 1.287E-08 alpha_mix =  0.700 |ddv_scf|^2 =  1.828E-17

     End of self-consistent calculation

     Convergence has been achieved 


     Representation #   2 mode #   2

     Self-consistent Calculation

      iter #   1 total cpu time :    46.9 secs   av.it.:   5.1
      thresh= 1.000E-02 alpha_mix =  0.700 |ddv_scf|^2 =  3.120E-06

      iter #   2 total cpu time :    47.3 secs   av.it.:   8.3
      thresh= 1.766E-04 alpha_mix =  0.700 |ddv_scf|^2 =  7.512E-07

      iter #   3 total cpu time :    47.9 secs   av.it.:   8.0
      thresh= 8.667E-05 alpha_mix =  0.700 |ddv_scf|^2 =  4.749E-09

      iter #   4 total cpu time :    48.3 secs   av.it.:   8.1
      thresh= 6.891E-06 alpha_mix =  0.700 |ddv_scf|^2 =  8.821E-11

      iter #   5 total cpu time :    48.6 secs   av.it.:   7.7
      thresh= 9.392E-07 alpha_mix =  0.700 |ddv_scf|^2 =  1.657E-12

      iter #   6 total cpu time :    48.9 secs   av.it.:   7.6
      thresh= 1.287E-07 alpha_mix =  0.700 |ddv_scf|^2 =  8.205E-16

      iter #   7 total cpu time :    49.2 secs   av.it.:   8.4
      thresh= 2.864E-09 alpha_mix =  0.700 |ddv_scf|^2 =  2.280E-17

     End of self-consistent calculation

     Convergence has been achieved 


     Representation #   3 modes #   3   4

     Self-consistent Calculation

      iter #   1 total cpu time :    49.6 secs   av.it.:   5.4
      thresh= 1.000E-02 alpha_mix =  0.700 |ddv_scf|^2 =  7.350E-07

      iter #   2 total cpu time :    50.2 secs   av.it.:   9.3
      thresh= 8.573E-05 alpha_mix =  0.700 |ddv_scf|^2 =  1.250E-07

      iter #   3 total cpu time :    51.0 secs   av.it.:   8.9
      thresh= 3.535E-05 alpha_mix =  0.700 |ddv_scf|^2 =  1.194E-10

      iter #   4 total cpu time :    52.0 secs   av.it.:   8.8
      thresh= 1.093E-06 alpha_mix =  0.700 |ddv_scf|^2 =  6.080E-12

      iter #   5 total cpu time :    52.6 secs   av.it.:   8.7
      thresh= 2.466E-07 alpha_mix =  0.700 |ddv_scf|^2 =  5.939E-15

      iter #   6 total cpu time :    53.8 secs   av.it.:   9.6
      thresh= 7.706E-09 alpha_mix =  0.700 |ddv_scf|^2 =  2.511E-17

     End of self-consistent calculation

     Convergence has been achieved 


     Representation #   4 modes #   5   6

     Self-consistent Calculation

      iter #   1 total cpu time :    54.3 secs   av.it.:   5.2
      thresh= 1.000E-02 alpha_mix =  0.700 |ddv_scf|^2 =  4.860E-07

      iter #   2 total cpu time :    54.9 secs   av.it.:   9.2
      thresh= 6.971E-05 alpha_mix =  0.700 |ddv_scf|^2 =  8.037E-08

      iter #   3 total cpu time :    55.6 secs   av.it.:   8.9
      thresh= 2.835E-05 alpha_mix =  0.700 |ddv_scf|^2 =  1.272E-10

      iter #   4 total cpu time :    56.2 secs   av.it.:   8.8
      thresh= 1.128E-06 alpha_mix =  0.700 |ddv_scf|^2 =  6.825E-12

      iter #   5 total cpu time :    56.8 secs   av.it.:   8.5
      thresh= 2.612E-07 alpha_mix =  0.700 |ddv_scf|^2 =  6.967E-15

      iter #   6 total cpu time :    57.4 secs   av.it.:   9.5
      thresh= 8.347E-09 alpha_mix =  0.700 |ddv_scf|^2 =  3.013E-17

     End of self-consistent calculation

     Convergence has been achieved 

     Number of q in the star =    6
     List of q in the star:
          1   0.000000000   0.500000000   0.000000000
          2   0.000000000  -0.500000000   0.000000000
          3   0.500000000   0.000000000   0.000000000
          4   0.000000000   0.000000000   0.500000000
          5   0.000000000   0.000000000  -0.500000000
          6  -0.500000000   0.000000000   0.000000000

     Diagonalizing the dynamical matrix

     q = (    0.000000000   0.500000000   0.000000000 ) 

 **************************************************************************
     freq (    1) =       3.871772 [THz] =     129.148411 [cm-1]
     freq (    2) =       3.871772 [THz] =     129.148411 [cm-1]
     freq (    3) =       6.741948 [THz] =     224.887189 [cm-1]
     freq (    4) =      13.203470 [THz] =     440.420366 [cm-1]
     freq (    5) =      13.203470 [THz] =     440.420366 [cm-1]
     freq (    6) =      14.087260 [THz] =     469.900415 [cm-1]
 **************************************************************************

     Mode symmetry, C_4v (4mm)  point group:

     freq (   1-   2) =        129.1  [cm-1]   --> E    G_5 D_5       
     freq (   3-   3) =        224.9  [cm-1]   --> A_1  G_1 D_1       
     freq (   4-   5) =        440.4  [cm-1]   --> E    G_5 D_5       
     freq (   6-   6) =        469.9  [cm-1]   --> B_2  G_4 D_2'      

     Calculation of q =    0.7500000  -0.2500000   0.7500000

     Parallelization info
     --------------------
     sticks:   dense  smooth     PW     G-vecs:    dense   smooth      PW
     Min          90      90     37                 1118     1118     284
     Max          91      91     38                 1120     1120     285
     Sum         361     361    151                 4477     4477    1139

     Using Slab Decomposition


     Title: 
     Ph                                                                         


     bravais-lattice index     =            2
     lattice parameter (alat)  =      10.4000  a.u.
     unit-cell volume          =     281.2160 (a.u.)^3
     number of atoms/cell      =            2
     number of atomic types    =            1
     number of electrons       =         8.00
     number of Kohn-Sham states=            4
     kinetic-energy cutoff     =      24.0000  Ry
     charge density cutoff     =      96.0000  Ry
     Exchange-correlation= PZ
                           (   1   1   0   0   0   0   0)

     celldm(1)=  10.400000  celldm(2)=   0.000000  celldm(3)=   0.000000
     celldm(4)=   0.000000  celldm(5)=   0.000000  celldm(6)=   0.000000

     crystal axes: (cart. coord. in units of alat)
               a(1) = (  -0.500000   0.000000   0.500000 )  
               a(2) = (   0.000000   0.500000   0.500000 )  
               a(3) = (  -0.500000   0.500000   0.000000 )  

     reciprocal axes: (cart. coord. in units 2 pi/alat)
               b(1) = ( -1.000000 -1.000000  1.000000 )  
               b(2) = (  1.000000  1.000000  1.000000 )  
               b(3) = ( -1.000000  1.000000 -1.000000 )  


     PseudoPot. # 1 for Si read from file:
     ../Si.pz-rrkj.UPF
     MD5 check sum: 884b380b739b48e9cd334294cddc9a8d
     Pseudo is Norm-conserving, Zval =  4.0
     Generated using "atomic" code by A. Dal Corso (espresso distribution)
     Using radial grid of 1141 points,  2 beta functions with: 
                l(1) =   0
                l(2) =   1

     atomic species   valence    mass     pseudopotential
        Si             4.00    28.08600     Si( 1.00)

     48 Sym. Ops., with inversion, found



   Cartesian axes

     site n.     atom                  positions (alat units)
         1           Si  tau(   1) = (   0.0000000   0.0000000   0.0000000  )
         2           Si  tau(   2) = (   0.2500000   0.2500000   0.2500000  )

     number of k points=    80
                       cart. coord. in units 2pi/alat
        k(    1) = (   0.0000000   0.0000000   0.0000000), wk =   0.0312500
        k(    2) = (   0.7500000  -0.2500000   0.7500000), wk =   0.0000000
        k(    3) = (  -0.2500000   0.2500000  -0.2500000), wk =   0.0312500
        k(    4) = (   0.5000000   0.0000000   0.5000000), wk =   0.0000000
        k(    5) = (   0.5000000  -0.5000000   0.5000000), wk =   0.0312500
        k(    6) = (   1.2500000  -0.7500000   1.2500000), wk =   0.0000000
        k(    7) = (   0.0000000   0.5000000   0.0000000), wk =   0.0312500
        k(    8) = (   0.7500000   0.2500000   0.7500000), wk =   0.0000000
        k(    9) = (   0.7500000  -0.2500000   0.7500000), wk =   0.0312500
        k(   10) = (   1.5000000  -0.5000000   1.5000000), wk =   0.0000000
        k(   11) = (   0.5000000   0.0000000   0.5000000), wk =   0.0312500
        k(   12) = (   1.2500000  -0.2500000   1.2500000), wk =   0.0000000
        k(   13) = (   0.0000000  -1.0000000   0.0000000), wk =   0.0312500
        k(   14) = (   0.7500000  -1.2500000   0.7500000), wk =   0.0000000
        k(   15) = (  -0.5000000  -1.0000000   0.0000000), wk =   0.0625000
        k(   16) = (   0.2500000  -1.2500000   0.7500000), wk =   0.0000000
        k(   17) = (  -0.2500000   0.2500000   0.2500000), wk =   0.0625000
        k(   18) = (   0.5000000   0.0000000   1.0000000), wk =   0.0000000
        k(   19) = (   0.2500000   0.2500000   0.2500000), wk =   0.0312500
        k(   20) = (   1.0000000   0.0000000   1.0000000), wk =   0.0000000
        k(   21) = (   0.2500000  -0.2500000   0.2500000), wk =   0.0312500
        k(   22) = (   1.0000000  -0.5000000   1.0000000), wk =   0.0000000
        k(   23) = (  -0.2500000  -0.2500000  -0.2500000), wk =   0.0312500
        k(   24) = (   0.5000000  -0.5000000   0.5000000), wk =   0.0000000
        k(   25) = (   0.2500000  -0.2500000  -0.2500000), wk =   0.0625000
        k(   26) = (   1.0000000  -0.5000000   0.5000000), wk =   0.0000000
        k(   27) = (   0.5000000  -0.5000000  -0.5000000), wk =   0.0625000
        k(   28) = (   1.2500000  -0.7500000   0.2500000), wk =   0.0000000
        k(   29) = (  -0.5000000  -0.5000000  -0.5000000), wk =   0.0312500
        k(   30) = (   0.2500000  -0.7500000   0.2500000), wk =   0.0000000
        k(   31) = (   0.0000000  -0.5000000   0.0000000), wk =   0.0312500
        k(   32) = (   0.7500000  -0.7500000   0.7500000), wk =   0.0000000
        k(   33) = (   0.5000000   0.0000000   0.0000000), wk =   0.0625000
        k(   34) = (   1.2500000  -0.2500000   0.7500000), wk =   0.0000000
        k(   35) = (   0.0000000   0.0000000  -0.5000000), wk =   0.0625000
        k(   36) = (   0.7500000  -0.2500000   0.2500000), wk =   0.0000000
        k(   37) = (   0.7500000  -0.2500000  -0.7500000), wk =   0.0625000
        k(   38) = (   1.5000000  -0.5000000   0.0000000), wk =   0.0000000
        k(   39) = (  -0.7500000  -0.2500000  -0.7500000), wk =   0.0312500
        k(   40) = (   0.0000000  -0.5000000   0.0000000), wk =   0.0000000
        k(   41) = (  -0.7500000   0.2500000  -0.7500000), wk =   0.0312500
        k(   42) = (   0.0000000   0.0000000   0.0000000), wk =   0.0000000
        k(   43) = (  -0.2500000   0.7500000  -0.7500000), wk =   0.0625000
        k(   44) = (   0.5000000   0.5000000   0.0000000), wk =   0.0000000
        k(   45) = (   0.7500000   0.2500000   0.7500000), wk =   0.0312500
        k(   46) = (   1.5000000   0.0000000   1.5000000), wk =   0.0000000
        k(   47) = (  -0.7500000   0.2500000   0.7500000), wk =   0.0625000
        k(   48) = (   0.0000000   0.0000000   1.5000000), wk =   0.0000000
        k(   49) = (  -0.7500000   0.7500000   0.2500000), wk =   0.0625000
        k(   50) = (   0.0000000   0.5000000   1.0000000), wk =   0.0000000
        k(   51) = (  -0.2500000   0.7500000   0.7500000), wk =   0.0625000
        k(   52) = (   0.5000000   0.5000000   1.5000000), wk =   0.0000000
        k(   53) = (  -0.2500000  -0.7500000  -0.7500000), wk =   0.0625000
        k(   54) = (   0.5000000  -1.0000000   0.0000000), wk =   0.0000000
        k(   55) = (   0.7500000  -0.7500000   0.2500000), wk =   0.0625000
        k(   56) = (   1.5000000  -1.0000000   1.0000000), wk =   0.0000000
        k(   57) = (  -0.7500000  -0.7500000   0.2500000), wk =   0.0625000
        k(   58) = (   0.0000000  -1.0000000   1.0000000), wk =   0.0000000
        k(   59) = (   0.2500000   0.7500000   0.7500000), wk =   0.0625000
        k(   60) = (   1.0000000   0.5000000   1.5000000), wk =   0.0000000
        k(   61) = (  -0.2500000  -0.7500000   0.7500000), wk =   0.0625000
        k(   62) = (   0.5000000  -1.0000000   1.5000000), wk =   0.0000000
        k(   63) = (   0.5000000   0.0000000  -0.5000000), wk =   0.0625000
        k(   64) = (   1.2500000  -0.2500000   0.2500000), wk =   0.0000000
        k(   65) = (  -0.5000000   0.0000000  -0.5000000), wk =   0.0312500
        k(   66) = (   0.2500000  -0.2500000   0.2500000), wk =   0.0000000
        k(   67) = (   0.0000000   0.5000000  -0.5000000), wk =   0.0625000
        k(   68) = (   0.7500000   0.2500000   0.2500000), wk =   0.0000000
        k(   69) = (   0.0000000   0.5000000   0.5000000), wk =   0.0625000
        k(   70) = (   0.7500000   0.2500000   1.2500000), wk =   0.0000000
        k(   71) = (   0.0000000  -0.5000000  -0.5000000), wk =   0.0625000
        k(   72) = (   0.7500000  -0.7500000   0.2500000), wk =   0.0000000
        k(   73) = (   0.5000000  -0.5000000   0.0000000), wk =   0.0625000
        k(   74) = (   1.2500000  -0.7500000   0.7500000), wk =   0.0000000
        k(   75) = (  -1.0000000   0.0000000   0.0000000), wk =   0.0625000
        k(   76) = (  -0.2500000  -0.2500000   0.7500000), wk =   0.0000000
        k(   77) = (   0.5000000  -1.0000000   0.0000000), wk =   0.0625000
        k(   78) = (   1.2500000  -1.2500000   0.7500000), wk =   0.0000000
        k(   79) = (  -1.0000000  -0.5000000   0.0000000), wk =   0.0625000
        k(   80) = (  -0.2500000  -0.7500000   0.7500000), wk =   0.0000000

     Dense  grid:     4477 G-vectors     FFT dimensions: (  24,  24,  24)

     Estimated max dynamical RAM per process >       0.56 MB

     Estimated total dynamical RAM >       2.26 MB

     The potential is recalculated from file :
     ./tmp/_ph0/silicon.save/charge-density

     Starting wfcs are    8 atomic wfcs

     Band Structure Calculation
     Davidson diagonalization with overlap

     ethr =  1.25E-10,  avg # of iterations =  9.8

     total cpu time spent up to now is        4.0 secs

     End of band structure calculation

          k = 0.0000 0.0000 0.0000 (   537 PWs)   bands (ev):

    -6.0333   5.6649   5.6649   5.6649

          k = 0.7500-0.2500 0.7500 (   558 PWs)   bands (ev):

    -3.4124  -0.6270   2.2313   3.5375

          k =-0.2500 0.2500-0.2500 (   564 PWs)   bands (ev):

    -5.2607   1.7855   4.9308   4.9308

          k = 0.5000 0.0000 0.5000 (   554 PWs)   bands (ev):

    -4.0611   0.2420   2.0309   4.3822

          k = 0.5000-0.5000 0.5000 (   568 PWs)   bands (ev):

    -3.7921  -1.1523   4.5035   4.5035

          k = 1.2500-0.7500 1.2500 (   564 PWs)   bands (ev):

    -5.2607   1.7855   4.9308   4.9308

          k = 0.0000 0.5000 0.0000 (   560 PWs)   bands (ev):

    -4.9875   2.1224   3.8444   3.8444

          k = 0.7500 0.2500 0.7500 (   558 PWs)   bands (ev):

    -3.4124  -0.6270   2.2313   3.5375

          k = 0.7500-0.2500 0.7500 (   558 PWs)   bands (ev):

    -3.4124  -0.6270   2.2313   3.5375

          k = 1.5000-0.5000 1.5000 (   568 PWs)   bands (ev):

    -3.7921  -1.1523   4.5035   4.5035

          k = 0.5000 0.0000 0.5000 (   554 PWs)   bands (ev):

    -4.0611   0.2420   2.0309   4.3822

          k = 1.2500-0.2500 1.2500 (   558 PWs)   bands (ev):

    -3.4124  -0.6270   2.2313   3.5375

          k = 0.0000-1.0000 0.0000 (   556 PWs)   bands (ev):

    -2.0309  -2.0309   2.9120   2.9120

          k = 0.7500-1.2500 0.7500 (   564 PWs)   bands (ev):

    -5.2607   1.7855   4.9308   4.9308

          k =-0.5000-1.0000 0.0000 (   560 PWs)   bands (ev):

    -1.8805  -1.8805   1.9464   1.9464

          k = 0.2500-1.2500 0.7500 (   558 PWs)   bands (ev):

    -3.4124  -0.6270   2.2313   3.5375

          k =-0.2500 0.2500 0.2500 (   564 PWs)   bands (ev):

    -5.2607   1.7855   4.9308   4.9308

          k = 0.5000 0.0000 1.0000 (   560 PWs)   bands (ev):

    -1.8805  -1.8805   1.9464   1.9464

          k = 0.2500 0.2500 0.2500 (   564 PWs)   bands (ev):

    -5.2607   1.7855   4.9308   4.9308

          k = 1.0000 0.0000 1.0000 (   556 PWs)   bands (ev):

    -2.0309  -2.0309   2.9120   2.9120

          k = 0.2500-0.2500 0.2500 (   564 PWs)   bands (ev):

    -5.2607   1.7855   4.9308   4.9308

          k = 1.0000-0.5000 1.0000 (   560 PWs)   bands (ev):

    -4.9875   2.1224   3.8444   3.8444

          k =-0.2500-0.2500-0.2500 (   564 PWs)   bands (ev):

    -5.2607   1.7855   4.9308   4.9308

          k = 0.5000-0.5000 0.5000 (   568 PWs)   bands (ev):

    -3.7921  -1.1523   4.5035   4.5035

          k = 0.2500-0.2500-0.2500 (   564 PWs)   bands (ev):

    -5.2607   1.7855   4.9308   4.9308

          k = 1.0000-0.5000 0.5000 (   554 PWs)   bands (ev):

    -4.0611   0.2420   2.0309   4.3822

          k = 0.5000-0.5000-0.5000 (   568 PWs)   bands (ev):

    -3.7921  -1.1523   4.5035   4.5035

          k = 1.2500-0.7500 0.2500 (   558 PWs)   bands (ev):

    -3.4124  -0.6270   2.2313   3.5375

          k =-0.5000-0.5000-0.5000 (   568 PWs)   bands (ev):

    -3.7921  -1.1523   4.5035   4.5035

          k = 0.2500-0.7500 0.2500 (   558 PWs)   bands (ev):

    -3.4124  -0.6270   2.2313   3.5375

          k = 0.0000-0.5000 0.0000 (   560 PWs)   bands (ev):

    -4.9875   2.1224   3.8444   3.8444

          k = 0.7500-0.7500 0.7500 (   564 PWs)   bands (ev):

    -5.2607   1.7855   4.9308   4.9308

          k = 0.5000 0.0000 0.0000 (   560 PWs)   bands (ev):

    -4.9875   2.1224   3.8444   3.8444

          k = 1.2500-0.2500 0.7500 (   558 PWs)   bands (ev):

    -3.4124  -0.6270   2.2313   3.5375

          k = 0.0000 0.0000-0.5000 (   560 PWs)   bands (ev):

    -4.9875   2.1224   3.8444   3.8444

          k = 0.7500-0.2500 0.2500 (   558 PWs)   bands (ev):

    -3.4124  -0.6270   2.2313   3.5375

          k = 0.7500-0.2500-0.7500 (   558 PWs)   bands (ev):

    -3.4124  -0.6270   2.2313   3.5375

          k = 1.5000-0.5000 0.0000 (   554 PWs)   bands (ev):

    -4.0611   0.2420   2.0309   4.3822

          k =-0.7500-0.2500-0.7500 (   558 PWs)   bands (ev):

    -3.4124  -0.6270   2.2313   3.5375

          k = 0.0000-0.5000 0.0000 (   560 PWs)   bands (ev):

    -4.9875   2.1224   3.8444   3.8444

          k =-0.7500 0.2500-0.7500 (   558 PWs)   bands (ev):

    -3.4124  -0.6270   2.2313   3.5375

          k = 0.0000 0.0000 0.0000 (   537 PWs)   bands (ev):

    -6.0333   5.6649   5.6649   5.6649

          k =-0.2500 0.7500-0.7500 (   558 PWs)   bands (ev):

    -3.4124  -0.6270   2.2313   3.5375

          k = 0.5000 0.5000 0.0000 (   554 PWs)   bands (ev):

    -4.0611   0.2420   2.0309   4.3822

          k = 0.7500 0.2500 0.7500 (   558 PWs)   bands (ev):

    -3.4124  -0.6270   2.2313   3.5375

          k = 1.5000 0.0000 1.5000 (   554 PWs)   bands (ev):

    -4.0611   0.2420   2.0309   4.3822

          k =-0.7500 0.2500 0.7500 (   558 PWs)   bands (ev):

    -3.4124  -0.6270   2.2313   3.5375

          k = 0.0000 0.0000 1.5000 (   560 PWs)   bands (ev):

    -4.9875   2.1224   3.8444   3.8444

          k =-0.7500 0.7500 0.2500 (   558 PWs)   bands (ev):

    -3.4124  -0.6270   2.2313   3.5375

          k = 0.0000 0.5000 1.0000 (   560 PWs)   bands (ev):

    -1.8805  -1.8805   1.9464   1.9464

          k =-0.2500 0.7500 0.7500 (   558 PWs)   bands (ev):

    -3.4124  -0.6270   2.2313   3.5375

          k = 0.5000 0.5000 1.5000 (   568 PWs)   bands (ev):

    -3.7921  -1.1523   4.5035   4.5035

          k =-0.2500-0.7500-0.7500 (   558 PWs)   bands (ev):

    -3.4124  -0.6270   2.2313   3.5375

          k = 0.5000-1.0000 0.0000 (   560 PWs)   bands (ev):

    -1.8805  -1.8805   1.9464   1.9464

          k = 0.7500-0.7500 0.2500 (   558 PWs)   bands (ev):

    -3.4124  -0.6270   2.2313   3.5375

          k = 1.5000-1.0000 1.0000 (   560 PWs)   bands (ev):

    -4.9875   2.1224   3.8444   3.8444

          k =-0.7500-0.7500 0.2500 (   558 PWs)   bands (ev):

    -3.4124  -0.6270   2.2313   3.5375

          k = 0.0000-1.0000 1.0000 (   556 PWs)   bands (ev):

    -2.0309  -2.0309   2.9120   2.9120

          k = 0.2500 0.7500 0.7500 (   558 PWs)   bands (ev):

    -3.4124  -0.6270   2.2313   3.5375

          k = 1.0000 0.5000 1.5000 (   554 PWs)   bands (ev):

    -4.0611   0.2420   2.0309   4.3822

          k =-0.2500-0.7500 0.7500 (   558 PWs)   bands (ev):

    -3.4124  -0.6270   2.2313   3.5375

          k = 0.5000-1.0000 1.5000 (   554 PWs)   bands (ev):

    -4.0611   0.2420   2.0309   4.3822

          k = 0.5000 0.0000-0.5000 (   554 PWs)   bands (ev):

    -4.0611   0.2420   2.0309   4.3822

          k = 1.2500-0.2500 0.2500 (   558 PWs)   bands (ev):

    -3.4124  -0.6270   2.2313   3.5375

          k =-0.5000 0.0000-0.5000 (   554 PWs)   bands (ev):

    -4.0611   0.2420   2.0309   4.3822

          k = 0.2500-0.2500 0.2500 (   564 PWs)   bands (ev):

    -5.2607   1.7855   4.9308   4.9308

          k = 0.0000 0.5000-0.5000 (   554 PWs)   bands (ev):

    -4.0611   0.2420   2.0309   4.3822

[...]
     lattice parameter (alat)  =      10.4000  a.u.
     unit-cell volume          =     281.2160 (a.u.)^3
     number of atoms/cell      =            2
     number of atomic types    =            1
     number of electrons       =         8.00
     number of Kohn-Sham states=            4
     kinetic-energy cutoff     =      24.0000  Ry
     charge density cutoff     =      96.0000  Ry
     Exchange-correlation= PZ
                           (   1   1   0   0   0   0   0)

     celldm(1)=  10.400000  celldm(2)=   0.000000  celldm(3)=   0.000000
     celldm(4)=   0.000000  celldm(5)=   0.000000  celldm(6)=   0.000000

     crystal axes: (cart. coord. in units of alat)
               a(1) = (  -0.500000   0.000000   0.500000 )  
               a(2) = (   0.000000   0.500000   0.500000 )  
               a(3) = (  -0.500000   0.500000   0.000000 )  

     reciprocal axes: (cart. coord. in units 2 pi/alat)
               b(1) = ( -1.000000 -1.000000  1.000000 )  
               b(2) = (  1.000000  1.000000  1.000000 )  
               b(3) = ( -1.000000  1.000000 -1.000000 )  


     PseudoPot. # 1 for Si read from file:
     ../Si.pz-rrkj.UPF
     MD5 check sum: 884b380b739b48e9cd334294cddc9a8d
     Pseudo is Norm-conserving, Zval =  4.0
     Generated using "atomic" code by A. Dal Corso (espresso distribution)
     Using radial grid of 1141 points,  2 beta functions with: 
                l(1) =   0
                l(2) =   1

     atomic species   valence    mass     pseudopotential
        Si             4.00    28.08600     Si( 1.00)

     48 Sym. Ops., with inversion, found



   Cartesian axes

     site n.     atom                  positions (alat units)
         1           Si  tau(   1) = (   0.0000000   0.0000000   0.0000000  )
         2           Si  tau(   2) = (   0.2500000   0.2500000   0.2500000  )

     number of k points=    32
                       cart. coord. in units 2pi/alat
        k(    1) = (   0.0000000   0.0000000   0.0000000), wk =   0.0312500
        k(    2) = (  -0.5000000  -1.0000000   0.0000000), wk =   0.0000000
        k(    3) = (  -0.2500000   0.2500000  -0.2500000), wk =   0.2500000
        k(    4) = (  -0.7500000  -0.7500000  -0.2500000), wk =   0.0000000
        k(    5) = (   0.5000000  -0.5000000   0.5000000), wk =   0.1250000
        k(    6) = (   0.0000000  -1.5000000   0.5000000), wk =   0.0000000
        k(    7) = (   0.0000000   0.5000000   0.0000000), wk =   0.1250000
        k(    8) = (  -0.5000000  -0.5000000   0.0000000), wk =   0.0000000
        k(    9) = (   0.7500000  -0.2500000   0.7500000), wk =   0.2500000
        k(   10) = (   0.2500000  -1.2500000   0.7500000), wk =   0.0000000
        k(   11) = (   0.5000000   0.0000000   0.5000000), wk =   0.1250000
        k(   12) = (   0.0000000  -1.0000000   0.5000000), wk =   0.0000000
        k(   13) = (   0.0000000  -1.0000000   0.0000000), wk =   0.0625000
        k(   14) = (  -0.5000000  -2.0000000   0.0000000), wk =   0.0000000
        k(   15) = (  -0.5000000  -1.0000000   0.0000000), wk =   0.0312500
        k(   16) = (  -1.0000000  -2.0000000   0.0000000), wk =   0.0000000
        k(   17) = (   0.5000000   0.0000000   0.0000000), wk =   0.0625000
        k(   18) = (   0.0000000  -1.0000000   0.0000000), wk =   0.0000000
        k(   19) = (  -0.7500000   0.2500000  -0.7500000), wk =   0.2500000
        k(   20) = (  -1.2500000  -0.7500000  -0.7500000), wk =   0.0000000
        k(   21) = (  -0.2500000   0.7500000   0.7500000), wk =   0.2500000
        k(   22) = (  -0.7500000  -0.2500000   0.7500000), wk =   0.0000000
        k(   23) = (  -0.5000000   0.0000000  -0.5000000), wk =   0.1250000
        k(   24) = (  -1.0000000  -1.0000000  -0.5000000), wk =   0.0000000
        k(   25) = (   0.0000000   0.5000000   0.5000000), wk =   0.1250000
        k(   26) = (  -0.5000000  -0.5000000   0.5000000), wk =   0.0000000
        k(   27) = (  -1.0000000   0.0000000   0.0000000), wk =   0.0312500
        k(   28) = (  -1.5000000  -1.0000000   0.0000000), wk =   0.0000000
        k(   29) = (   0.0000000   1.0000000   0.5000000), wk =   0.1250000
        k(   30) = (  -0.5000000   0.0000000   0.5000000), wk =   0.0000000
        k(   31) = (   0.5000000   1.0000000   0.0000000), wk =   0.0312500
        k(   32) = (   0.0000000   0.0000000   0.0000000), wk =   0.0000000

     Dense  grid:     4477 G-vectors     FFT dimensions: (  24,  24,  24)

     Estimated max dynamical RAM per process >       0.56 MB

     Estimated total dynamical RAM >       2.26 MB

     The potential is recalculated from file :
     ./tmp/_ph0/silicon.save/charge-density

     Starting wfcs are    8 atomic wfcs

     Band Structure Calculation
     Davidson diagonalization with overlap

     ethr =  1.25E-10,  avg # of iterations =  9.4

     total cpu time spent up to now is        7.8 secs

     End of band structure calculation

          k = 0.0000 0.0000 0.0000 (   537 PWs)   bands (ev):

    -6.0333   5.6649   5.6649   5.6649

          k =-0.5000-1.0000 0.0000 (   560 PWs)   bands (ev):

    -1.8805  -1.8805   1.9464   1.9464

          k =-0.2500 0.2500-0.2500 (   564 PWs)   bands (ev):

    -5.2607   1.7855   4.9308   4.9308

          k =-0.7500-0.7500-0.2500 (   558 PWs)   bands (ev):

    -3.4124  -0.6270   2.2313   3.5375

          k = 0.5000-0.5000 0.5000 (   568 PWs)   bands (ev):

    -3.7921  -1.1523   4.5035   4.5035

          k = 0.0000-1.5000 0.5000 (   554 PWs)   bands (ev):

    -4.0611   0.2420   2.0309   4.3822

          k = 0.0000 0.5000 0.0000 (   560 PWs)   bands (ev):

    -4.9875   2.1224   3.8444   3.8444

          k =-0.5000-0.5000 0.0000 (   554 PWs)   bands (ev):

    -4.0611   0.2420   2.0309   4.3822

          k = 0.7500-0.2500 0.7500 (   558 PWs)   bands (ev):

    -3.4124  -0.6270   2.2313   3.5375

          k = 0.2500-1.2500 0.7500 (   558 PWs)   bands (ev):

    -3.4124  -0.6270   2.2313   3.5375

          k = 0.5000 0.0000 0.5000 (   554 PWs)   bands (ev):

    -4.0611   0.2420   2.0309   4.3822

          k = 0.0000-1.0000 0.5000 (   560 PWs)   bands (ev):

    -1.8805  -1.8805   1.9464   1.9464

          k = 0.0000-1.0000 0.0000 (   556 PWs)   bands (ev):

    -2.0309  -2.0309   2.9120   2.9120

          k =-0.5000-2.0000 0.0000 (   560 PWs)   bands (ev):

    -4.9875   2.1224   3.8444   3.8444

          k =-0.5000-1.0000 0.0000 (   560 PWs)   bands (ev):

    -1.8805  -1.8805   1.9464   1.9464

          k =-1.0000-2.0000 0.0000 (   556 PWs)   bands (ev):

    -2.0309  -2.0309   2.9120   2.9120

          k = 0.5000 0.0000 0.0000 (   560 PWs)   bands (ev):

    -4.9875   2.1224   3.8444   3.8444

          k = 0.0000-1.0000 0.0000 (   556 PWs)   bands (ev):

    -2.0309  -2.0309   2.9120   2.9120

          k =-0.7500 0.2500-0.7500 (   558 PWs)   bands (ev):

    -3.4124  -0.6270   2.2313   3.5375

          k =-1.2500-0.7500-0.7500 (   564 PWs)   bands (ev):

    -5.2607   1.7855   4.9308   4.9308

          k =-0.2500 0.7500 0.7500 (   558 PWs)   bands (ev):

    -3.4124  -0.6270   2.2313   3.5375

          k =-0.7500-0.2500 0.7500 (   558 PWs)   bands (ev):

    -3.4124  -0.6270   2.2313   3.5375

          k =-0.5000 0.0000-0.5000 (   554 PWs)   bands (ev):

    -4.0611   0.2420   2.0309   4.3822

          k =-1.0000-1.0000-0.5000 (   560 PWs)   bands (ev):

    -4.9875   2.1224   3.8444   3.8444

          k = 0.0000 0.5000 0.5000 (   554 PWs)   bands (ev):

    -4.0611   0.2420   2.0309   4.3822

          k =-0.5000-0.5000 0.5000 (   568 PWs)   bands (ev):

    -3.7921  -1.1523   4.5035   4.5035

          k =-1.0000 0.0000 0.0000 (   556 PWs)   bands (ev):

    -2.0309  -2.0309   2.9120   2.9120

          k =-1.5000-1.0000 0.0000 (   560 PWs)   bands (ev):

    -1.8805  -1.8805   1.9464   1.9464

          k = 0.0000 1.0000 0.5000 (   560 PWs)   bands (ev):

    -1.8805  -1.8805   1.9464   1.9464

          k =-0.5000 0.0000 0.5000 (   554 PWs)   bands (ev):

    -4.0611   0.2420   2.0309   4.3822

          k = 0.5000 1.0000 0.0000 (   560 PWs)   bands (ev):

    -1.8805  -1.8805   1.9464   1.9464

          k = 0.0000 0.0000 0.0000 (   537 PWs)   bands (ev):

    -6.0333   5.6649   5.6649   5.6649

     highest occupied level (ev):     5.6649

     Writing output data file ./tmp/_ph0/silicon.save/

     Ph                                                                         

     bravais-lattice index     =            2
     lattice parameter (alat)  =      10.4000  a.u.
     unit-cell volume          =     281.2160 (a.u.)^3
     number of atoms/cell      =            2
     number of atomic types    =            1
     kinetic-energy cut-off    =      24.0000  Ry
     charge density cut-off    =      96.0000  Ry
     convergence threshold     =      1.0E-16
     beta                      =       0.7000
     number of iterations used =            4
     Exchange-correlation= PZ
                           (   1   1   0   0   0   0   0)


     celldm(1)=   10.40000  celldm(2)=    0.00000  celldm(3)=    0.00000
     celldm(4)=    0.00000  celldm(5)=    0.00000  celldm(6)=    0.00000

     crystal axes: (cart. coord. in units of alat)
               a(1) = ( -0.5000  0.0000  0.5000 )  
               a(2) = (  0.0000  0.5000  0.5000 )  
               a(3) = ( -0.5000  0.5000  0.0000 )  

     reciprocal axes: (cart. coord. in units 2 pi/alat)
               b(1) = ( -1.0000 -1.0000  1.0000 )  
               b(2) = (  1.0000  1.0000  1.0000 )  
               b(3) = ( -1.0000  1.0000 -1.0000 )  


     Atoms inside the unit cell: 

     Cartesian axes

     site n.  atom      mass           positions (alat units)
        1     Si  28.0860   tau(    1) = (    0.00000    0.00000    0.00000  )
        2     Si  28.0860   tau(    2) = (    0.25000    0.25000    0.25000  )

     Computing dynamical matrix for 
                    q = (  -0.5000000  -1.0000000   0.0000000 )

      8 Sym.Ops. (no q -> -q+G )


     G cutoff =  263.0136  (   1120 G-vectors)     FFT grid: ( 24, 24, 24)
     number of k points=    32

     PseudoPot. # 1 for Si read from file:
     ../Si.pz-rrkj.UPF
     MD5 check sum: 884b380b739b48e9cd334294cddc9a8d
     Pseudo is Norm-conserving, Zval =  4.0
     Generated using "atomic" code by A. Dal Corso (espresso distribution)
     Using radial grid of 1141 points,  2 beta functions with: 
                l(1) =   0
                l(2) =   1


     Atomic displacements:
     There are    3 irreducible representations

     Representation     1      2 modes -  To be done

     Representation     2      2 modes -  To be done

     Representation     3      2 modes -  To be done



     Alpha used in Ewald sum =   1.0000
     PHONON       :   1m46.70s CPU   2m21.02s WALL



     Representation #   1 modes #   1   2

     Self-consistent Calculation

      iter #   1 total cpu time :   141.3 secs   av.it.:   5.6
      thresh= 1.000E-02 alpha_mix =  0.700 |ddv_scf|^2 =  5.749E-06

      iter #   2 total cpu time :   141.8 secs   av.it.:   9.0
      thresh= 2.398E-04 alpha_mix =  0.700 |ddv_scf|^2 =  7.502E-06

      iter #   3 total cpu time :   142.1 secs   av.it.:   8.5
      thresh= 2.739E-04 alpha_mix =  0.700 |ddv_scf|^2 =  1.351E-09

      iter #   4 total cpu time :   142.6 secs   av.it.:   8.7
      thresh= 3.676E-06 alpha_mix =  0.700 |ddv_scf|^2 =  2.685E-11

      iter #   5 total cpu time :   143.0 secs   av.it.:   8.4
      thresh= 5.182E-07 alpha_mix =  0.700 |ddv_scf|^2 =  9.841E-14

      iter #   6 total cpu time :   143.4 secs   av.it.:   8.1
      thresh= 3.137E-08 alpha_mix =  0.700 |ddv_scf|^2 =  1.639E-15

      iter #   7 total cpu time :   143.8 secs   av.it.:   8.8
      thresh= 4.049E-09 alpha_mix =  0.700 |ddv_scf|^2 =  1.153E-16

      iter #   8 total cpu time :   144.2 secs   av.it.:   8.7
      thresh= 1.074E-09 alpha_mix =  0.700 |ddv_scf|^2 =  2.113E-17

     End of self-consistent calculation

     Convergence has been achieved 


     Representation #   2 modes #   3   4

     Self-consistent Calculation

      iter #   1 total cpu time :   144.6 secs   av.it.:   5.6
      thresh= 1.000E-02 alpha_mix =  0.700 |ddv_scf|^2 =  2.880E-06

      iter #   2 total cpu time :   145.0 secs   av.it.:   9.1
      thresh= 1.697E-04 alpha_mix =  0.700 |ddv_scf|^2 =  1.986E-06

      iter #   3 total cpu time :   145.4 secs   av.it.:   8.6
      thresh= 1.409E-04 alpha_mix =  0.700 |ddv_scf|^2 =  1.978E-10

      iter #   4 total cpu time :   145.8 secs   av.it.:   8.5
      thresh= 1.406E-06 alpha_mix =  0.700 |ddv_scf|^2 =  1.279E-11

      iter #   5 total cpu time :   146.2 secs   av.it.:   8.5
      thresh= 3.577E-07 alpha_mix =  0.700 |ddv_scf|^2 =  1.888E-14

      iter #   6 total cpu time :   146.7 secs   av.it.:   9.2
      thresh= 1.374E-08 alpha_mix =  0.700 |ddv_scf|^2 =  2.279E-16

      iter #   7 total cpu time :   147.2 secs   av.it.:   9.1
      thresh= 1.510E-09 alpha_mix =  0.700 |ddv_scf|^2 =  1.233E-17

     End of self-consistent calculation

     Convergence has been achieved 


     Representation #   3 modes #   5   6

     Self-consistent Calculation

      iter #   1 total cpu time :   147.7 secs   av.it.:   5.7
      thresh= 1.000E-02 alpha_mix =  0.700 |ddv_scf|^2 =  3.485E-06

      iter #   2 total cpu time :   148.1 secs   av.it.:   9.2
      thresh= 1.867E-04 alpha_mix =  0.700 |ddv_scf|^2 =  2.467E-06

      iter #   3 total cpu time :   148.6 secs   av.it.:   8.6
      thresh= 1.571E-04 alpha_mix =  0.700 |ddv_scf|^2 =  1.721E-10

      iter #   4 total cpu time :   149.0 secs   av.it.:   8.7
      thresh= 1.312E-06 alpha_mix =  0.700 |ddv_scf|^2 =  2.099E-11

      iter #   5 total cpu time :   149.4 secs   av.it.:   8.6
      thresh= 4.581E-07 alpha_mix =  0.700 |ddv_scf|^2 =  9.861E-15

      iter #   6 total cpu time :   149.8 secs   av.it.:   9.2
      thresh= 9.930E-09 alpha_mix =  0.700 |ddv_scf|^2 =  2.095E-16

      iter #   7 total cpu time :   150.2 secs   av.it.:   9.2
      thresh= 1.447E-09 alpha_mix =  0.700 |ddv_scf|^2 =  8.672E-18

     End of self-consistent calculation

     Convergence has been achieved 

     Number of q in the star =    6
     List of q in the star:
          1  -0.500000000  -1.000000000   0.000000000
          2   0.000000000   1.000000000   0.500000000
          3   0.000000000  -1.000000000  -0.500000000
          4   0.500000000   1.000000000   0.000000000
          5  -1.000000000  -0.500000000   0.000000000
          6   0.000000000  -0.500000000  -1.000000000

     Diagonalizing the dynamical matrix

     q = (   -0.500000000  -1.000000000   0.000000000 ) 

 **************************************************************************
     freq (    1) =       6.443140 [THz] =     214.920007 [cm-1]
     freq (    2) =       6.443140 [THz] =     214.920007 [cm-1]
     freq (    3) =       9.821651 [THz] =     327.615016 [cm-1]
     freq (    4) =       9.821651 [THz] =     327.615016 [cm-1]
     freq (    5) =      12.521780 [THz] =     417.681607 [cm-1]
     freq (    6) =      12.521780 [THz] =     417.681607 [cm-1]
 **************************************************************************

     init_run     :      0.11s CPU      0.14s WALL (       7 calls)
     electrons    :      5.20s CPU      7.55s WALL (       7 calls)

     Called by init_run:
     wfcinit      :      0.00s CPU      0.00s WALL (       7 calls)
     potinit      :      0.01s CPU      0.01s WALL (       7 calls)
     hinit0       :      0.08s CPU      0.09s WALL (       7 calls)

     Called by electrons:
     c_bands      :      5.20s CPU      7.53s WALL (       7 calls)
     v_of_rho     :      0.01s CPU      0.01s WALL (       8 calls)

     Called by c_bands:
     init_us_2    :      0.20s CPU      0.25s WALL (    7434 calls)
     cegterg      :      4.37s CPU      6.37s WALL (     292 calls)

     Called by *egterg:
     cdiaghg      :      0.16s CPU      0.18s WALL (    3114 calls)
     h_psi        :     77.48s CPU    100.72s WALL (   75594 calls)
     g_psi        :      0.01s CPU      0.01s WALL (    2822 calls)

     Called by h_psi:
     h_psi:calbec :      6.07s CPU      8.58s WALL (   75594 calls)
     vloc_psi     :     70.06s CPU     90.53s WALL (   75594 calls)
     add_vuspsi   :      0.79s CPU      0.95s WALL (   75594 calls)

     General routines
     calbec       :      8.95s CPU     12.65s WALL (  153042 calls)
     fft          :      0.81s CPU      1.03s WALL (    1157 calls)
     ffts         :      0.21s CPU      0.26s WALL (    1164 calls)
     fftw         :     83.55s CPU    108.15s WALL (  666576 calls)
     davcio       :      0.75s CPU      0.90s WALL (   38165 calls)

     Parallel routines

     PHONON       :   1m54.62s CPU   2m30.25s WALL

     INITIALIZATION: 
     phq_setup    :      0.04s CPU      0.04s WALL (       8 calls)
     phq_init     :      0.18s CPU      0.21s WALL (       8 calls)

     phq_init     :      0.18s CPU      0.21s WALL (       8 calls)
     init_vloc    :      0.01s CPU      0.01s WALL (       8 calls)
     init_us_1    :      0.04s CPU      0.05s WALL (       8 calls)

     DYNAMICAL MATRIX:
     dynmat0      :      0.06s CPU      0.07s WALL (       8 calls)
     phqscf       :    106.11s CPU    138.43s WALL (       8 calls)
     dynmatrix    :      0.02s CPU      0.02s WALL (       8 calls)

     phqscf       :    106.11s CPU    138.43s WALL (       8 calls)
     solve_linter :    105.82s CPU    138.06s WALL (      32 calls)
     drhodv       :      0.24s CPU      0.29s WALL (      32 calls)

     dynmat0      :      0.06s CPU      0.07s WALL (       8 calls)
     dynmat_us    :      0.05s CPU      0.06s WALL (       8 calls)
     d2ionq       :      0.01s CPU      0.01s WALL (       8 calls)

     dynmat_us    :      0.05s CPU      0.06s WALL (       8 calls)

     phqscf       :    106.11s CPU    138.43s WALL (       8 calls)
     solve_linter :    105.82s CPU    138.06s WALL (      32 calls)

     solve_linter :    105.82s CPU    138.06s WALL (      32 calls)
     dvqpsi_us    :      1.30s CPU      1.64s WALL (     972 calls)
     ortho        :      0.76s CPU      1.06s WALL (    7657 calls)
     cgsolve      :     84.71s CPU    110.56s WALL (    7657 calls)
     incdrhoscf   :      8.20s CPU     10.52s WALL (    7633 calls)
     vpsifft      :      7.76s CPU     10.05s WALL (    6565 calls)
     dv_of_drho   :      0.82s CPU      1.04s WALL (     375 calls)
     mix_pot      :      0.24s CPU      0.35s WALL (     261 calls)
     psymdvscf    :      1.84s CPU      2.35s WALL (     255 calls)

     dvqpsi_us    :      1.30s CPU      1.64s WALL (     972 calls)
     dvqpsi_us_on :      0.05s CPU      0.07s WALL (     972 calls)

     cgsolve      :     84.71s CPU    110.56s WALL (    7657 calls)
     ch_psi       :     81.08s CPU    105.43s WALL (   72188 calls)

     ch_psi       :     81.08s CPU    105.43s WALL (   72188 calls)
     h_psi        :     77.48s CPU    100.72s WALL (   75594 calls)
     last         :      7.16s CPU      9.86s WALL (   72188 calls)

     h_psi        :     77.48s CPU    100.72s WALL (   75594 calls)
     add_vuspsi   :      0.79s CPU      0.95s WALL (   75594 calls)

     incdrhoscf   :      8.20s CPU     10.52s WALL (    7633 calls)


      General routines
     calbec       :      8.95s CPU     12.65s WALL (  153042 calls)
     fft          :      0.81s CPU      1.03s WALL (    1157 calls)
     ffts         :      0.21s CPU      0.26s WALL (    1164 calls)
     fftw         :     83.55s CPU    108.15s WALL (  666576 calls)
     davcio       :      0.75s CPU      0.90s WALL (   38165 calls)
     write_rec    :      0.26s CPU      0.57s WALL (     293 calls)


     PHONON       :   1m54.62s CPU   2m30.25s WALL


   This run was terminated on:  11: 4:51  19Apr2021            

=------------------------------------------------------------------------------=
   JOB DONE.
=------------------------------------------------------------------------------=
