
     Program PHONON v.6.4.1 starts on 25Jun2019 at 10:31: 9 

     This program is part of the open-source Quantum ESPRESSO suite
     for quantum simulation of materials; please cite
         "P. Giannozzi et al., J. Phys.:Condens. Matter 21 395502 (2009);
         "P. Giannozzi et al., J. Phys.:Condens. Matter 29 465901 (2017);
          URL http://www.quantum-espresso.org", 
     in publications or presentations arising from this work. More details at
     http://www.quantum-espresso.org/quote

     Parallel version (MPI), running on     4 processors

     MPI processes distributed on     1 nodes
     R & G space division:  proc/nbgrp/npool/nimage =       4

     Reading data from directory:
     ./tmp/silicon.save/

     IMPORTANT: XC functional enforced from input :
     Exchange-correlation      = PZ ( 1  1  0  0 0 0)
     Any further DFT definition will be discarded
     Please, verify this is what you really want


     Parallelization info
     --------------------
     sticks:   dense  smooth     PW     G-vecs:    dense   smooth      PW
     Min          87      87     30                 1070     1070     205
     Max          88      88     31                 1073     1073     206
     Sum         349     349    121                 4285     4285     821



     Dynamical matrices for ( 4, 4, 4)  uniform grid of q-points
     (   8 q-points):
       N         xq(1)         xq(2)         xq(3) 
       1   0.000000000   0.000000000   0.000000000
       2  -0.250000000   0.250000000  -0.250000000
       3   0.500000000  -0.500000000   0.500000000
       4   0.000000000   0.500000000   0.000000000
       5   0.750000000  -0.250000000   0.750000000
       6   0.500000000   0.000000000   0.500000000
       7   0.000000000  -1.000000000   0.000000000
       8  -0.500000000  -1.000000000   0.000000000

     Calculation of q =    0.0000000   0.0000000   0.0000000

     Ph                                                                         

     bravais-lattice index     =            2
     lattice parameter (alat)  =      10.3000  a.u.
     unit-cell volume          =     273.1818 (a.u.)^3
     number of atoms/cell      =            2
     number of atomic types    =            1
     kinetic-energy cut-off    =      24.0000  Ry
     charge density cut-off    =      96.0000  Ry
     convergence threshold     =      1.0E-16
     beta                      =       0.7000
     number of iterations used =            4
     Exchange-correlation      = PZ ( 1  1  0  0 0 0)


     celldm(1)=   10.30000  celldm(2)=    0.00000  celldm(3)=    0.00000
     celldm(4)=    0.00000  celldm(5)=    0.00000  celldm(6)=    0.00000

     crystal axes: (cart. coord. in units of alat)
               a(1) = ( -0.5000  0.0000  0.5000 )  
               a(2) = (  0.0000  0.5000  0.5000 )  
               a(3) = ( -0.5000  0.5000  0.0000 )  

     reciprocal axes: (cart. coord. in units 2 pi/alat)
               b(1) = ( -1.0000 -1.0000  1.0000 )  
               b(2) = (  1.0000  1.0000  1.0000 )  
               b(3) = ( -1.0000  1.0000 -1.0000 )  


     Atoms inside the unit cell: 

     Cartesian axes

     site n.  atom      mass           positions (alat units)
        1     Si  28.0860   tau(    1) = (    0.00000    0.00000    0.00000  )
        2     Si  28.0860   tau(    2) = (    0.25000    0.25000    0.25000  )

     Computing dynamical matrix for 
                    q = (   0.0000000   0.0000000   0.0000000 )

     49 Sym.Ops. (with q -> -q+G )


     G cutoff =  257.9799  (   1073 G-vectors)     FFT grid: ( 24, 24, 24)
     number of k points=     8

     PseudoPot. # 1 for Si read from file:
     ../Si.pz-rrkj.UPF
     MD5 check sum: 884b380b739b48e9cd334294cddc9a8d
     Pseudo is Norm-conserving, Zval =  4.0
     Generated using "atomic" code by A. Dal Corso (espresso distribution)
     Using radial grid of 1141 points,  2 beta functions with: 
                l(1) =   0
                l(2) =   1

     Mode symmetry, O_h (m-3m)  point group:


     Electric field:
     Dielectric constant
     Born effective charges in two ways 


     Atomic displacements:
     There are   2 irreducible representations

     Representation     1      3 modes -T_2g G_25' G_5+  To be done

     Representation     2      3 modes -T_1u G_15  G_4-  To be done



     Alpha used in Ewald sum =   1.0000
     PHONON       :      0.30s CPU      0.30s WALL


     Electric Fields Calculation

      iter #   1 total cpu time :     0.7 secs   av.it.:   5.7
      thresh= 1.000E-02 alpha_mix =  0.700 |ddv_scf|^2 =  5.445E-07

      iter #   2 total cpu time :     0.9 secs   av.it.:   9.0
      thresh= 7.379E-05 alpha_mix =  0.700 |ddv_scf|^2 =  2.413E-08

      iter #   3 total cpu time :     1.2 secs   av.it.:   9.1
      thresh= 1.553E-05 alpha_mix =  0.700 |ddv_scf|^2 =  4.886E-10

      iter #   4 total cpu time :     1.4 secs   av.it.:   9.2
      thresh= 2.211E-06 alpha_mix =  0.700 |ddv_scf|^2 =  2.726E-12

      iter #   5 total cpu time :     1.6 secs   av.it.:   8.8
      thresh= 1.651E-07 alpha_mix =  0.700 |ddv_scf|^2 =  8.255E-16

      iter #   6 total cpu time :     1.8 secs   av.it.:   8.8
      thresh= 2.873E-09 alpha_mix =  0.700 |ddv_scf|^2 =  1.595E-17

     End of electric fields calculation

          Dielectric constant in cartesian axis 

          (      25.209319884      -0.000000000       0.000000000 )
          (      -0.000000000      25.209319884      -0.000000000 )
          (       0.000000000      -0.000000000      25.209319884 )

          Effective charges (d Force / dE) in cartesian axis

           atom      1   Si 
      Ex  (       -1.22972        0.00000       -0.00000 )
      Ey  (       -0.00000       -1.22972       -0.00000 )
      Ez  (        0.00000        0.00000       -1.22972 )
           atom      2   Si 
      Ex  (       -1.22972        0.00000       -0.00000 )
      Ey  (        0.00000       -1.22972        0.00000 )
      Ez  (       -0.00000       -0.00000       -1.22972 )


     Representation #  1 modes #   1  2  3

     Self-consistent Calculation

      iter #   1 total cpu time :     2.1 secs   av.it.:   4.8
      thresh= 1.000E-02 alpha_mix =  0.700 |ddv_scf|^2 =  1.078E-07

      iter #   2 total cpu time :     2.4 secs   av.it.:   8.8
      thresh= 3.283E-05 alpha_mix =  0.700 |ddv_scf|^2 =  1.839E-09

      iter #   3 total cpu time :     2.7 secs   av.it.:   8.7
      thresh= 4.289E-06 alpha_mix =  0.700 |ddv_scf|^2 =  2.564E-11

      iter #   4 total cpu time :     2.9 secs   av.it.:   8.2
      thresh= 5.064E-07 alpha_mix =  0.700 |ddv_scf|^2 =  1.685E-14

      iter #   5 total cpu time :     3.2 secs   av.it.:   9.0
      thresh= 1.298E-08 alpha_mix =  0.700 |ddv_scf|^2 =  1.184E-16

      iter #   6 total cpu time :     3.4 secs   av.it.:   8.8
      thresh= 1.088E-09 alpha_mix =  0.700 |ddv_scf|^2 =  1.951E-18

     End of self-consistent calculation

     Convergence has been achieved 


     Representation #  2 modes #   4  5  6

     Self-consistent Calculation

      iter #   1 total cpu time :     3.8 secs   av.it.:   5.1
      thresh= 1.000E-02 alpha_mix =  0.700 |ddv_scf|^2 =  8.087E-08

      iter #   2 total cpu time :     4.0 secs   av.it.:   9.3
      thresh= 2.844E-05 alpha_mix =  0.700 |ddv_scf|^2 =  3.448E-09

      iter #   3 total cpu time :     4.3 secs   av.it.:   9.3
      thresh= 5.872E-06 alpha_mix =  0.700 |ddv_scf|^2 =  3.469E-11

      iter #   4 total cpu time :     4.6 secs   av.it.:   9.0
      thresh= 5.890E-07 alpha_mix =  0.700 |ddv_scf|^2 =  7.205E-14

      iter #   5 total cpu time :     4.8 secs   av.it.:   9.2
      thresh= 2.684E-08 alpha_mix =  0.700 |ddv_scf|^2 =  8.470E-16

      iter #   6 total cpu time :     5.1 secs   av.it.:   9.2
      thresh= 2.910E-09 alpha_mix =  0.700 |ddv_scf|^2 =  6.920E-19

     End of self-consistent calculation

     Convergence has been achieved 

     Number of q in the star =    1
     List of q in the star:
          1   0.000000000   0.000000000   0.000000000

          Dielectric constant in cartesian axis 

          (      25.209319884      -0.000000000       0.000000000 )
          (      -0.000000000      25.209319884      -0.000000000 )
          (       0.000000000      -0.000000000      25.209319884 )

          Effective charges (d Force / dE) in cartesian axis

           atom      1   Si 
      Ex  (       -1.22972        0.00000       -0.00000 )
      Ey  (       -0.00000       -1.22972       -0.00000 )
      Ez  (        0.00000        0.00000       -1.22972 )
           atom      2   Si 
      Ex  (       -1.22972        0.00000       -0.00000 )
      Ey  (        0.00000       -1.22972        0.00000 )
      Ez  (       -0.00000       -0.00000       -1.22972 )

          Effective charges (d P / du) in cartesian axis 

           atom      1   Si 
      Px  (       -1.22972       -0.00000        0.00000 )
      Py  (       -0.00000       -1.22972        0.00000 )
      Pz  (        0.00000       -0.00000       -1.22972 )
           atom      2   Si 
      Px  (       -1.22972       -0.00000       -0.00000 )
      Py  (       -0.00000       -1.22972        0.00000 )
      Pz  (       -0.00000        0.00000       -1.22972 )

     Diagonalizing the dynamical matrix

     q = (    0.000000000   0.000000000   0.000000000 ) 

 **************************************************************************
     freq (    1) =       0.128251 [THz] =       4.277983 [cm-1]
     freq (    2) =       0.128251 [THz] =       4.277983 [cm-1]
     freq (    3) =       0.128251 [THz] =       4.277983 [cm-1]
     freq (    4) =      15.097863 [THz] =     503.610500 [cm-1]
     freq (    5) =      15.097863 [THz] =     503.610500 [cm-1]
     freq (    6) =      15.097863 [THz] =     503.610500 [cm-1]
 **************************************************************************

     Mode symmetry, O_h (m-3m)  point group:

     freq (  1 -  3) =          4.3  [cm-1]   --> T_1u G_15  G_4- I  
     freq (  4 -  6) =        503.6  [cm-1]   --> T_2g G_25' G_5+ R  

     Calculation of q =   -0.2500000   0.2500000  -0.2500000

     Subspace diagonalization in iterative solution of the eigenvalue problem:
     a serial algorithm will be used


     Parallelization info
     --------------------
     sticks:   dense  smooth     PW     G-vecs:    dense   smooth      PW
     Min          87      87     30                 1070     1070     222
     Max          88      88     31                 1073     1073     225
     Sum         349     349    121                 4285     4285     893


     Title: 
     Ph                                                                         


     bravais-lattice index     =            2
     lattice parameter (alat)  =      10.3000  a.u.
     unit-cell volume          =     273.1818 (a.u.)^3
     number of atoms/cell      =            2
     number of atomic types    =            1
     number of electrons       =         8.00
     number of Kohn-Sham states=            4
     kinetic-energy cutoff     =      24.0000  Ry
     charge density cutoff     =      96.0000  Ry
     Exchange-correlation      = PZ ( 1  1  0  0 0 0)

     celldm(1)=  10.300000  celldm(2)=   0.000000  celldm(3)=   0.000000
     celldm(4)=   0.000000  celldm(5)=   0.000000  celldm(6)=   0.000000

     crystal axes: (cart. coord. in units of alat)
               a(1) = (  -0.500000   0.000000   0.500000 )  
               a(2) = (   0.000000   0.500000   0.500000 )  
               a(3) = (  -0.500000   0.500000   0.000000 )  

     reciprocal axes: (cart. coord. in units 2 pi/alat)
               b(1) = ( -1.000000 -1.000000  1.000000 )  
               b(2) = (  1.000000  1.000000  1.000000 )  
               b(3) = ( -1.000000  1.000000 -1.000000 )  


     PseudoPot. # 1 for Si read from file:
     ../Si.pz-rrkj.UPF
     MD5 check sum: 884b380b739b48e9cd334294cddc9a8d
     Pseudo is Norm-conserving, Zval =  4.0
     Generated using "atomic" code by A. Dal Corso (espresso distribution)
     Using radial grid of 1141 points,  2 beta functions with: 
                l(1) =   0
                l(2) =   1

     atomic species   valence    mass     pseudopotential
        Si             4.00    28.08600     Si( 1.00)

     48 Sym. Ops., with inversion, found



   Cartesian axes

     site n.     atom                  positions (alat units)
         1           Si  tau(   1) = (   0.0000000   0.0000000   0.0000000  )
         2           Si  tau(   2) = (   0.2500000   0.2500000   0.2500000  )

     number of k points=    40
                       cart. coord. in units 2pi/alat
        k(    1) = (   0.0000000   0.0000000   0.0000000), wk =   0.0312500
        k(    2) = (  -0.2500000   0.2500000  -0.2500000), wk =   0.0000000
        k(    3) = (  -0.2500000   0.2500000  -0.2500000), wk =   0.0312500
        k(    4) = (  -0.5000000   0.5000000  -0.5000000), wk =   0.0000000
        k(    5) = (   0.5000000  -0.5000000   0.5000000), wk =   0.0312500
        k(    6) = (   0.2500000  -0.2500000   0.2500000), wk =   0.0000000
        k(    7) = (   0.0000000   0.5000000   0.0000000), wk =   0.0937500
        k(    8) = (  -0.2500000   0.7500000  -0.2500000), wk =   0.0000000
        k(    9) = (   0.7500000  -0.2500000   0.7500000), wk =   0.0937500
        k(   10) = (   0.5000000   0.0000000   0.5000000), wk =   0.0000000
        k(   11) = (   0.5000000   0.0000000   0.5000000), wk =   0.0937500
        k(   12) = (   0.2500000   0.2500000   0.2500000), wk =   0.0000000
        k(   13) = (   0.0000000  -1.0000000   0.0000000), wk =   0.0937500
        k(   14) = (  -0.2500000  -0.7500000  -0.2500000), wk =   0.0000000
        k(   15) = (  -0.5000000  -1.0000000   0.0000000), wk =   0.1875000
        k(   16) = (  -0.7500000  -0.7500000  -0.2500000), wk =   0.0000000
        k(   17) = (   0.2500000  -0.2500000  -0.2500000), wk =   0.0937500
        k(   18) = (   0.0000000   0.0000000  -0.5000000), wk =   0.0000000
        k(   19) = (   0.2500000  -0.2500000   0.2500000), wk =   0.0312500
        k(   20) = (   0.0000000   0.0000000   0.0000000), wk =   0.0000000
        k(   21) = (  -0.2500000  -0.2500000  -0.2500000), wk =   0.0937500
        k(   22) = (  -0.5000000   0.0000000  -0.5000000), wk =   0.0000000
        k(   23) = (  -0.5000000   0.5000000   0.5000000), wk =   0.0937500
        k(   24) = (  -0.7500000   0.7500000   0.2500000), wk =   0.0000000
        k(   25) = (   0.0000000   0.0000000   0.5000000), wk =   0.0937500
        k(   26) = (  -0.2500000   0.2500000   0.2500000), wk =   0.0000000
        k(   27) = (  -0.7500000   0.7500000   0.2500000), wk =   0.0937500
        k(   28) = (  -1.0000000   1.0000000   0.0000000), wk =   0.0000000
        k(   29) = (  -0.7500000   0.7500000  -0.2500000), wk =   0.0937500
        k(   30) = (  -1.0000000   1.0000000  -0.5000000), wk =   0.0000000
        k(   31) = (  -0.7500000   0.2500000   0.7500000), wk =   0.1875000
        k(   32) = (  -1.0000000   0.5000000   0.5000000), wk =   0.0000000
        k(   33) = (   0.7500000   0.2500000   0.7500000), wk =   0.0937500
        k(   34) = (   0.5000000   0.5000000   0.5000000), wk =   0.0000000
        k(   35) = (   0.7500000  -0.2500000  -0.7500000), wk =   0.1875000
        k(   36) = (   0.5000000   0.0000000  -1.0000000), wk =   0.0000000
        k(   37) = (  -0.5000000   0.5000000   0.0000000), wk =   0.0937500
        k(   38) = (  -0.7500000   0.7500000  -0.2500000), wk =   0.0000000
        k(   39) = (  -0.5000000   0.0000000   0.5000000), wk =   0.1875000
        k(   40) = (  -0.7500000   0.2500000   0.2500000), wk =   0.0000000

     Dense  grid:     4285 G-vectors     FFT dimensions: (  24,  24,  24)

     Estimated max dynamical RAM per process >       0.60 MB

     Estimated total dynamical RAM >       2.38 MB

     The potential is recalculated from file :
     ./tmp/_ph0/silicon.save/charge-density

     Starting wfcs are    8 atomic wfcs

     Band Structure Calculation
     Davidson diagonalization with overlap

     ethr =  1.25E-10,  avg # of iterations =  9.8

     total cpu time spent up to now is        0.3 secs

     End of band structure calculation

          k = 0.0000 0.0000 0.0000 (   537 PWs)   bands (ev):

    -5.9335   5.9572   5.9572   5.9572

          k =-0.2500 0.2500-0.2500 (   543 PWs)   bands (ev):

    -5.1406   2.0298   5.2052   5.2052

          k =-0.2500 0.2500-0.2500 (   543 PWs)   bands (ev):

    -5.1406   2.0298   5.2052   5.2052

          k =-0.5000 0.5000-0.5000 (   544 PWs)   bands (ev):

    -3.6208  -0.9891   4.7711   4.7711

          k = 0.5000-0.5000 0.5000 (   544 PWs)   bands (ev):

    -3.6208  -0.9891   4.7711   4.7711

          k = 0.2500-0.2500 0.2500 (   543 PWs)   bands (ev):

    -5.1406   2.0298   5.2052   5.2052

          k = 0.0000 0.5000 0.0000 (   560 PWs)   bands (ev):

    -4.8612   2.4230   4.0846   4.0846

          k =-0.2500 0.7500-0.2500 (   542 PWs)   bands (ev):

    -3.2392  -0.4077   2.4324   3.7730

          k = 0.7500-0.2500 0.7500 (   542 PWs)   bands (ev):

    -3.2392  -0.4077   2.4324   3.7730

          k = 0.5000 0.0000 0.5000 (   540 PWs)   bands (ev):

    -3.9073   0.4858   2.2164   4.6429

          k = 0.5000 0.0000 0.5000 (   540 PWs)   bands (ev):

    -3.9073   0.4858   2.2164   4.6429

          k = 0.2500 0.2500 0.2500 (   543 PWs)   bands (ev):

    -5.1406   2.0298   5.2052   5.2052

          k = 0.0000-1.0000 0.0000 (   524 PWs)   bands (ev):

    -1.8277  -1.8277   3.1310   3.1310

          k =-0.2500-0.7500-0.2500 (   542 PWs)   bands (ev):

    -3.2392  -0.4077   2.4324   3.7730

          k =-0.5000-1.0000 0.0000 (   524 PWs)   bands (ev):

    -1.6649  -1.6649   2.1212   2.1212

          k =-0.7500-0.7500-0.2500 (   542 PWs)   bands (ev):

    -3.2392  -0.4077   2.4324   3.7730

          k = 0.2500-0.2500-0.2500 (   543 PWs)   bands (ev):

    -5.1406   2.0298   5.2052   5.2052

          k = 0.0000 0.0000-0.5000 (   560 PWs)   bands (ev):

    -4.8612   2.4230   4.0846   4.0846

          k = 0.2500-0.2500 0.2500 (   543 PWs)   bands (ev):

    -5.1406   2.0298   5.2052   5.2052

          k = 0.0000 0.0000 0.0000 (   537 PWs)   bands (ev):

    -5.9335   5.9572   5.9572   5.9572

          k =-0.2500-0.2500-0.2500 (   543 PWs)   bands (ev):

    -5.1406   2.0298   5.2052   5.2052

          k =-0.5000 0.0000-0.5000 (   540 PWs)   bands (ev):

    -3.9073   0.4858   2.2164   4.6429

          k =-0.5000 0.5000 0.5000 (   544 PWs)   bands (ev):

    -3.6208  -0.9891   4.7711   4.7711

          k =-0.7500 0.7500 0.2500 (   542 PWs)   bands (ev):

    -3.2392  -0.4077   2.4324   3.7730

          k = 0.0000 0.0000 0.5000 (   560 PWs)   bands (ev):

    -4.8612   2.4230   4.0846   4.0846

          k =-0.2500 0.2500 0.2500 (   543 PWs)   bands (ev):

    -5.1406   2.0298   5.2052   5.2052

          k =-0.7500 0.7500 0.2500 (   542 PWs)   bands (ev):

    -3.2392  -0.4077   2.4324   3.7730

          k =-1.0000 1.0000 0.0000 (   524 PWs)   bands (ev):

    -1.8277  -1.8277   3.1310   3.1310

          k =-0.7500 0.7500-0.2500 (   542 PWs)   bands (ev):

    -3.2392  -0.4077   2.4324   3.7730

          k =-1.0000 1.0000-0.5000 (   560 PWs)   bands (ev):

    -4.8612   2.4230   4.0846   4.0846

          k =-0.7500 0.2500 0.7500 (   542 PWs)   bands (ev):

    -3.2392  -0.4077   2.4324   3.7730

          k =-1.0000 0.5000 0.5000 (   540 PWs)   bands (ev):

    -3.9073   0.4858   2.2164   4.6429

          k = 0.7500 0.2500 0.7500 (   542 PWs)   bands (ev):

    -3.2392  -0.4077   2.4324   3.7730

          k = 0.5000 0.5000 0.5000 (   544 PWs)   bands (ev):

    -3.6208  -0.9891   4.7711   4.7711

          k = 0.7500-0.2500-0.7500 (   542 PWs)   bands (ev):

    -3.2392  -0.4077   2.4324   3.7730

          k = 0.5000 0.0000-1.0000 (   524 PWs)   bands (ev):

    -1.6649  -1.6649   2.1212   2.1212

          k =-0.5000 0.5000 0.0000 (   540 PWs)   bands (ev):

    -3.9073   0.4858   2.2164   4.6429

          k =-0.7500 0.7500-0.2500 (   542 PWs)   bands (ev):

    -3.2392  -0.4077   2.4324   3.7730

          k =-0.5000 0.0000 0.5000 (   540 PWs)   bands (ev):

    -3.9073   0.4858   2.2164   4.6429

          k =-0.7500 0.2500 0.2500 (   542 PWs)   bands (ev):

    -3.2392  -0.4077   2.4324   3.7730

     highest occupied level (ev):     5.9572

     Writing output data file silicon.save/

     Ph                                                                         

     bravais-lattice index     =            2
     lattice parameter (alat)  =      10.3000  a.u.
     unit-cell volume          =     273.1818 (a.u.)^3
     number of atoms/cell      =            2
     number of atomic types    =            1
     kinetic-energy cut-off    =      24.0000  Ry
     charge density cut-off    =      96.0000  Ry
     convergence threshold     =      1.0E-16
     beta                      =       0.7000
     number of iterations used =            4
     Exchange-correlation      = PZ ( 1  1  0  0 0 0)


     celldm(1)=   10.30000  celldm(2)=    0.00000  celldm(3)=    0.00000
     celldm(4)=    0.00000  celldm(5)=    0.00000  celldm(6)=    0.00000

     crystal axes: (cart. coord. in units of alat)
               a(1) = ( -0.5000  0.0000  0.5000 )  
               a(2) = (  0.0000  0.5000  0.5000 )  
               a(3) = ( -0.5000  0.5000  0.0000 )  

     reciprocal axes: (cart. coord. in units 2 pi/alat)
               b(1) = ( -1.0000 -1.0000  1.0000 )  
               b(2) = (  1.0000  1.0000  1.0000 )  
               b(3) = ( -1.0000  1.0000 -1.0000 )  


     Atoms inside the unit cell: 

     Cartesian axes

     site n.  atom      mass           positions (alat units)
        1     Si  28.0860   tau(    1) = (    0.00000    0.00000    0.00000  )
        2     Si  28.0860   tau(    2) = (    0.25000    0.25000    0.25000  )

     Computing dynamical matrix for 
                    q = (  -0.2500000   0.2500000  -0.2500000 )

      6 Sym.Ops. (no q -> -q+G )


     G cutoff =  257.9799  (   1073 G-vectors)     FFT grid: ( 24, 24, 24)
     number of k points=    40

     PseudoPot. # 1 for Si read from file:
     ../Si.pz-rrkj.UPF
     MD5 check sum: 884b380b739b48e9cd334294cddc9a8d
     Pseudo is Norm-conserving, Zval =  4.0
     Generated using "atomic" code by A. Dal Corso (espresso distribution)
     Using radial grid of 1141 points,  2 beta functions with: 
                l(1) =   0
                l(2) =   1

     Mode symmetry, C_3v (3m)   point group:


     Atomic displacements:
     There are   4 irreducible representations

     Representation     1      1 modes -A_1  L_1  To be done

     Representation     2      1 modes -A_1  L_1  To be done

     Representation     3      2 modes -E    L_3  To be done

     Representation     4      2 modes -E    L_3  To be done



     Alpha used in Ewald sum =   1.0000
     PHONON       :      4.99s CPU      5.47s WALL



     Representation #  1 mode #   1

     Self-consistent Calculation

      iter #   1 total cpu time :     5.6 secs   av.it.:   5.9
      thresh= 1.000E-02 alpha_mix =  0.700 |ddv_scf|^2 =  1.413E-03

      iter #   2 total cpu time :     5.7 secs   av.it.:   7.7
      thresh= 3.759E-03 alpha_mix =  0.700 |ddv_scf|^2 =  2.047E-02

      iter #   3 total cpu time :     5.9 secs   av.it.:   6.6
      thresh= 1.000E-02 alpha_mix =  0.700 |ddv_scf|^2 =  1.037E-06

      iter #   4 total cpu time :     6.0 secs   av.it.:   8.0
      thresh= 1.018E-04 alpha_mix =  0.700 |ddv_scf|^2 =  9.387E-08

      iter #   5 total cpu time :     6.1 secs   av.it.:   7.7
      thresh= 3.064E-05 alpha_mix =  0.700 |ddv_scf|^2 =  4.705E-10

      iter #   6 total cpu time :     6.3 secs   av.it.:   8.0
      thresh= 2.169E-06 alpha_mix =  0.700 |ddv_scf|^2 =  2.691E-10

      iter #   7 total cpu time :     6.5 secs   av.it.:   6.7
      thresh= 1.641E-06 alpha_mix =  0.700 |ddv_scf|^2 =  6.658E-11

      iter #   8 total cpu time :     6.7 secs   av.it.:   7.3
      thresh= 8.160E-07 alpha_mix =  0.700 |ddv_scf|^2 =  3.919E-13

      iter #   9 total cpu time :     6.9 secs   av.it.:   6.8
      thresh= 6.260E-08 alpha_mix =  0.700 |ddv_scf|^2 =  5.906E-15

      iter #  10 total cpu time :     7.1 secs   av.it.:   8.2
      thresh= 7.685E-09 alpha_mix =  0.700 |ddv_scf|^2 =  5.918E-15

      iter #  11 total cpu time :     7.3 secs   av.it.:   7.3
      thresh= 7.693E-09 alpha_mix =  0.700 |ddv_scf|^2 =  4.311E-17

     End of self-consistent calculation

     Convergence has been achieved 


     Representation #  2 mode #   2

     Self-consistent Calculation

      iter #   1 total cpu time :     7.5 secs   av.it.:   5.9
      thresh= 1.000E-02 alpha_mix =  0.700 |ddv_scf|^2 =  1.413E-03

      iter #   2 total cpu time :     7.7 secs   av.it.:   7.7
      thresh= 3.760E-03 alpha_mix =  0.700 |ddv_scf|^2 =  2.047E-02

      iter #   3 total cpu time :     7.9 secs   av.it.:   6.6
      thresh= 1.000E-02 alpha_mix =  0.700 |ddv_scf|^2 =  1.038E-06

      iter #   4 total cpu time :     8.1 secs   av.it.:   8.0
      thresh= 1.019E-04 alpha_mix =  0.700 |ddv_scf|^2 =  9.401E-08

      iter #   5 total cpu time :     8.3 secs   av.it.:   7.7
      thresh= 3.066E-05 alpha_mix =  0.700 |ddv_scf|^2 =  4.881E-10

      iter #   6 total cpu time :     8.5 secs   av.it.:   7.9
      thresh= 2.209E-06 alpha_mix =  0.700 |ddv_scf|^2 =  4.341E-11

      iter #   7 total cpu time :     8.6 secs   av.it.:   7.7
      thresh= 6.588E-07 alpha_mix =  0.700 |ddv_scf|^2 =  1.886E-10

      iter #   8 total cpu time :     8.8 secs   av.it.:   6.7
      thresh= 1.373E-06 alpha_mix =  0.700 |ddv_scf|^2 =  3.930E-13

      iter #   9 total cpu time :     8.9 secs   av.it.:   6.9
      thresh= 6.269E-08 alpha_mix =  0.700 |ddv_scf|^2 =  5.742E-15

      iter #  10 total cpu time :     9.1 secs   av.it.:   8.2
      thresh= 7.578E-09 alpha_mix =  0.700 |ddv_scf|^2 =  5.441E-15

      iter #  11 total cpu time :     9.2 secs   av.it.:   7.3
      thresh= 7.376E-09 alpha_mix =  0.700 |ddv_scf|^2 =  4.846E-17

     End of self-consistent calculation

     Convergence has been achieved 


     Representation #  3 modes #   3  4

     Self-consistent Calculation

      iter #   1 total cpu time :     9.5 secs   av.it.:   5.2
      thresh= 1.000E-02 alpha_mix =  0.700 |ddv_scf|^2 =  3.027E-07

      iter #   2 total cpu time :     9.8 secs   av.it.:   9.3
      thresh= 5.502E-05 alpha_mix =  0.700 |ddv_scf|^2 =  1.812E-08

      iter #   3 total cpu time :    10.2 secs   av.it.:   9.2
      thresh= 1.346E-05 alpha_mix =  0.700 |ddv_scf|^2 =  9.867E-11

      iter #   4 total cpu time :    10.5 secs   av.it.:   9.2
      thresh= 9.933E-07 alpha_mix =  0.700 |ddv_scf|^2 =  6.047E-12

      iter #   5 total cpu time :    10.8 secs   av.it.:   9.1
      thresh= 2.459E-07 alpha_mix =  0.700 |ddv_scf|^2 =  1.130E-14

      iter #   6 total cpu time :    11.2 secs   av.it.:   9.4
      thresh= 1.063E-08 alpha_mix =  0.700 |ddv_scf|^2 =  1.810E-16

      iter #   7 total cpu time :    11.7 secs   av.it.:   9.6
      thresh= 1.346E-09 alpha_mix =  0.700 |ddv_scf|^2 =  1.032E-18

     End of self-consistent calculation

     Convergence has been achieved 


     Representation #  4 modes #   5  6

     Self-consistent Calculation

      iter #   1 total cpu time :    12.0 secs   av.it.:   5.3
      thresh= 1.000E-02 alpha_mix =  0.700 |ddv_scf|^2 =  3.025E-07

      iter #   2 total cpu time :    12.4 secs   av.it.:   9.6
      thresh= 5.500E-05 alpha_mix =  0.700 |ddv_scf|^2 =  1.806E-08

      iter #   3 total cpu time :    12.9 secs   av.it.:   9.3
      thresh= 1.344E-05 alpha_mix =  0.700 |ddv_scf|^2 =  9.876E-11

      iter #   4 total cpu time :    13.3 secs   av.it.:   9.2
      thresh= 9.938E-07 alpha_mix =  0.700 |ddv_scf|^2 =  6.039E-12

      iter #   5 total cpu time :    13.8 secs   av.it.:   9.2
      thresh= 2.457E-07 alpha_mix =  0.700 |ddv_scf|^2 =  1.129E-14

      iter #   6 total cpu time :    14.3 secs   av.it.:   9.5
      thresh= 1.062E-08 alpha_mix =  0.700 |ddv_scf|^2 =  1.802E-16

      iter #   7 total cpu time :    14.8 secs   av.it.:   9.7
      thresh= 1.342E-09 alpha_mix =  0.700 |ddv_scf|^2 =  1.007E-18

     End of self-consistent calculation

     Convergence has been achieved 

     Number of q in the star =    8
     List of q in the star:
          1  -0.250000000   0.250000000  -0.250000000
          2   0.250000000  -0.250000000  -0.250000000
          3   0.250000000  -0.250000000   0.250000000
          4   0.250000000   0.250000000   0.250000000
          5  -0.250000000  -0.250000000  -0.250000000
          6  -0.250000000  -0.250000000   0.250000000
          7  -0.250000000   0.250000000   0.250000000
          8   0.250000000   0.250000000  -0.250000000

     Diagonalizing the dynamical matrix

     q = (   -0.250000000   0.250000000  -0.250000000 ) 

 **************************************************************************
     freq (    1) =       2.840467 [THz] =      94.747796 [cm-1]
     freq (    2) =       2.840467 [THz] =      94.747796 [cm-1]
     freq (    3) =       6.644950 [THz] =     221.651665 [cm-1]
     freq (    4) =      14.248563 [THz] =     475.280896 [cm-1]
     freq (    5) =      14.401208 [THz] =     480.372577 [cm-1]
     freq (    6) =      14.401208 [THz] =     480.372577 [cm-1]
 **************************************************************************

     Mode symmetry, C_3v (3m)   point group:

     freq (  1 -  2) =         94.7  [cm-1]   --> E    L_3           
     freq (  3 -  3) =        221.7  [cm-1]   --> A_1  L_1           
     freq (  4 -  4) =        475.3  [cm-1]   --> A_1  L_1           
     freq (  5 -  6) =        480.4  [cm-1]   --> E    L_3           

     Calculation of q =    0.5000000  -0.5000000   0.5000000

     Parallelization info
     --------------------
     sticks:   dense  smooth     PW     G-vecs:    dense   smooth      PW
     Min          87      87     34                 1070     1070     259
     Max          88      88     35                 1073     1073     260
     Sum         349     349    139                 4285     4285    1037


     Title: 
     Ph                                                                         


     bravais-lattice index     =            2
     lattice parameter (alat)  =      10.3000  a.u.
     unit-cell volume          =     273.1818 (a.u.)^3
     number of atoms/cell      =            2
     number of atomic types    =            1
     number of electrons       =         8.00
     number of Kohn-Sham states=            4
     kinetic-energy cutoff     =      24.0000  Ry
     charge density cutoff     =      96.0000  Ry
     Exchange-correlation      = PZ ( 1  1  0  0 0 0)

     celldm(1)=  10.300000  celldm(2)=   0.000000  celldm(3)=   0.000000
     celldm(4)=   0.000000  celldm(5)=   0.000000  celldm(6)=   0.000000

     crystal axes: (cart. coord. in units of alat)
               a(1) = (  -0.500000   0.000000   0.500000 )  
               a(2) = (   0.000000   0.500000   0.500000 )  
               a(3) = (  -0.500000   0.500000   0.000000 )  

     reciprocal axes: (cart. coord. in units 2 pi/alat)
               b(1) = ( -1.000000 -1.000000  1.000000 )  
               b(2) = (  1.000000  1.000000  1.000000 )  
               b(3) = ( -1.000000  1.000000 -1.000000 )  


     PseudoPot. # 1 for Si read from file:
     ../Si.pz-rrkj.UPF
     MD5 check sum: 884b380b739b48e9cd334294cddc9a8d
     Pseudo is Norm-conserving, Zval =  4.0
     Generated using "atomic" code by A. Dal Corso (espresso distribution)
     Using radial grid of 1141 points,  2 beta functions with: 
                l(1) =   0
                l(2) =   1

     atomic species   valence    mass     pseudopotential
        Si             4.00    28.08600     Si( 1.00)

     48 Sym. Ops., with inversion, found



   Cartesian axes

     site n.     atom                  positions (alat units)
         1           Si  tau(   1) = (   0.0000000   0.0000000   0.0000000  )
         2           Si  tau(   2) = (   0.2500000   0.2500000   0.2500000  )

     number of k points=    26
                       cart. coord. in units 2pi/alat
        k(    1) = (   0.0000000   0.0000000   0.0000000), wk =   0.0312500
        k(    2) = (   0.5000000  -0.5000000   0.5000000), wk =   0.0000000
        k(    3) = (  -0.2500000   0.2500000  -0.2500000), wk =   0.0625000
        k(    4) = (   0.2500000  -0.2500000   0.2500000), wk =   0.0000000
        k(    5) = (   0.5000000  -0.5000000   0.5000000), wk =   0.0312500
        k(    6) = (   1.0000000  -1.0000000   1.0000000), wk =   0.0000000
        k(    7) = (   0.0000000   0.5000000   0.0000000), wk =   0.1875000
        k(    8) = (   0.5000000   0.0000000   0.5000000), wk =   0.0000000
        k(    9) = (   0.7500000  -0.2500000   0.7500000), wk =   0.1875000
        k(   10) = (   1.2500000  -0.7500000   1.2500000), wk =   0.0000000
        k(   11) = (   0.5000000   0.0000000   0.5000000), wk =   0.1875000
        k(   12) = (   1.0000000  -0.5000000   1.0000000), wk =   0.0000000
        k(   13) = (   0.0000000  -1.0000000   0.0000000), wk =   0.0937500
        k(   14) = (   0.5000000  -1.5000000   0.5000000), wk =   0.0000000
        k(   15) = (  -0.5000000  -1.0000000   0.0000000), wk =   0.1875000
        k(   16) = (   0.0000000  -1.5000000   0.5000000), wk =   0.0000000
        k(   17) = (  -0.2500000  -0.2500000  -0.2500000), wk =   0.1875000
        k(   18) = (   0.2500000  -0.7500000   0.2500000), wk =   0.0000000
        k(   19) = (   0.5000000   0.5000000   0.5000000), wk =   0.0937500
        k(   20) = (   1.0000000   0.0000000   1.0000000), wk =   0.0000000
        k(   21) = (   0.7500000   0.2500000   0.7500000), wk =   0.1875000
        k(   22) = (   1.2500000  -0.2500000   1.2500000), wk =   0.0000000
        k(   23) = (  -0.7500000   0.2500000   0.7500000), wk =   0.3750000
        k(   24) = (  -0.2500000  -0.2500000   1.2500000), wk =   0.0000000
        k(   25) = (  -0.5000000   0.0000000   0.5000000), wk =   0.1875000
        k(   26) = (   0.0000000  -0.5000000   1.0000000), wk =   0.0000000

     Dense  grid:     4285 G-vectors     FFT dimensions: (  24,  24,  24)

     Estimated max dynamical RAM per process >       0.60 MB

     Estimated total dynamical RAM >       2.39 MB

     The potential is recalculated from file :
     ./tmp/_ph0/silicon.save/charge-density

     Starting wfcs are    8 atomic wfcs

     Band Structure Calculation
     Davidson diagonalization with overlap

     ethr =  1.25E-10,  avg # of iterations =  9.5

     total cpu time spent up to now is        0.7 secs

     End of band structure calculation

          k = 0.0000 0.0000 0.0000 (   537 PWs)   bands (ev):

    -5.9335   5.9572   5.9572   5.9572

          k = 0.5000-0.5000 0.5000 (   544 PWs)   bands (ev):

    -3.6208  -0.9891   4.7711   4.7711

          k =-0.2500 0.2500-0.2500 (   543 PWs)   bands (ev):

    -5.1406   2.0298   5.2052   5.2052

          k = 0.2500-0.2500 0.2500 (   543 PWs)   bands (ev):

    -5.1406   2.0298   5.2052   5.2052

          k = 0.5000-0.5000 0.5000 (   544 PWs)   bands (ev):

    -3.6208  -0.9891   4.7711   4.7711

          k = 1.0000-1.0000 1.0000 (   537 PWs)   bands (ev):

    -5.9335   5.9572   5.9572   5.9572

          k = 0.0000 0.5000 0.0000 (   560 PWs)   bands (ev):

    -4.8612   2.4230   4.0846   4.0846

          k = 0.5000 0.0000 0.5000 (   540 PWs)   bands (ev):

    -3.9073   0.4858   2.2164   4.6429

          k = 0.7500-0.2500 0.7500 (   542 PWs)   bands (ev):

    -3.2392  -0.4077   2.4324   3.7730

          k = 1.2500-0.7500 1.2500 (   543 PWs)   bands (ev):

    -5.1406   2.0298   5.2052   5.2052

          k = 0.5000 0.0000 0.5000 (   540 PWs)   bands (ev):

    -3.9073   0.4858   2.2164   4.6429

          k = 1.0000-0.5000 1.0000 (   560 PWs)   bands (ev):

    -4.8612   2.4230   4.0846   4.0846

          k = 0.0000-1.0000 0.0000 (   524 PWs)   bands (ev):

    -1.8277  -1.8277   3.1310   3.1310

          k = 0.5000-1.5000 0.5000 (   544 PWs)   bands (ev):

    -3.6208  -0.9891   4.7711   4.7711

          k =-0.5000-1.0000 0.0000 (   524 PWs)   bands (ev):

    -1.6649  -1.6649   2.1212   2.1212

          k = 0.0000-1.5000 0.5000 (   540 PWs)   bands (ev):

    -3.9073   0.4858   2.2164   4.6429

          k =-0.2500-0.2500-0.2500 (   543 PWs)   bands (ev):

    -5.1406   2.0298   5.2052   5.2052

          k = 0.2500-0.7500 0.2500 (   542 PWs)   bands (ev):

    -3.2392  -0.4077   2.4324   3.7730

          k = 0.5000 0.5000 0.5000 (   544 PWs)   bands (ev):

    -3.6208  -0.9891   4.7711   4.7711

          k = 1.0000 0.0000 1.0000 (   524 PWs)   bands (ev):

    -1.8277  -1.8277   3.1310   3.1310

          k = 0.7500 0.2500 0.7500 (   542 PWs)   bands (ev):

    -3.2392  -0.4077   2.4324   3.7730

          k = 1.2500-0.2500 1.2500 (   542 PWs)   bands (ev):

    -3.2392  -0.4077   2.4324   3.7730

          k =-0.7500 0.2500 0.7500 (   542 PWs)   bands (ev):

    -3.2392  -0.4077   2.4324   3.7730

          k =-0.2500-0.2500 1.2500 (   542 PWs)   bands (ev):

    -3.2392  -0.4077   2.4324   3.7730

          k =-0.5000 0.0000 0.5000 (   540 PWs)   bands (ev):

    -3.9073   0.4858   2.2164   4.6429

          k = 0.0000-0.5000 1.0000 (   524 PWs)   bands (ev):

    -1.6649  -1.6649   2.1212   2.1212

     highest occupied level (ev):     5.9572

     Writing output data file silicon.save/

     Ph                                                                         

     bravais-lattice index     =            2
     lattice parameter (alat)  =      10.3000  a.u.
     unit-cell volume          =     273.1818 (a.u.)^3
     number of atoms/cell      =            2
     number of atomic types    =            1
     kinetic-energy cut-off    =      24.0000  Ry
     charge density cut-off    =      96.0000  Ry
     convergence threshold     =      1.0E-16
     beta                      =       0.7000
     number of iterations used =            4
     Exchange-correlation      = PZ ( 1  1  0  0 0 0)


     celldm(1)=   10.30000  celldm(2)=    0.00000  celldm(3)=    0.00000
     celldm(4)=    0.00000  celldm(5)=    0.00000  celldm(6)=    0.00000

     crystal axes: (cart. coord. in units of alat)
               a(1) = ( -0.5000  0.0000  0.5000 )  
               a(2) = (  0.0000  0.5000  0.5000 )  
               a(3) = ( -0.5000  0.5000  0.0000 )  

     reciprocal axes: (cart. coord. in units 2 pi/alat)
               b(1) = ( -1.0000 -1.0000  1.0000 )  
               b(2) = (  1.0000  1.0000  1.0000 )  
               b(3) = ( -1.0000  1.0000 -1.0000 )  


     Atoms inside the unit cell: 

     Cartesian axes

     site n.  atom      mass           positions (alat units)
        1     Si  28.0860   tau(    1) = (    0.00000    0.00000    0.00000  )
        2     Si  28.0860   tau(    2) = (    0.25000    0.25000    0.25000  )

     Computing dynamical matrix for 
                    q = (   0.5000000  -0.5000000   0.5000000 )

     13 Sym.Ops. (with q -> -q+G )


     G cutoff =  257.9799  (   1073 G-vectors)     FFT grid: ( 24, 24, 24)
     number of k points=    26

     PseudoPot. # 1 for Si read from file:
     ../Si.pz-rrkj.UPF
     MD5 check sum: 884b380b739b48e9cd334294cddc9a8d
     Pseudo is Norm-conserving, Zval =  4.0
     Generated using "atomic" code by A. Dal Corso (espresso distribution)
     Using radial grid of 1141 points,  2 beta functions with: 
                l(1) =   0
                l(2) =   1


     Atomic displacements:
     There are   4 irreducible representations

     Representation     1      1 modes -  To be done

     Representation     2      1 modes -  To be done

     Representation     3      2 modes -  To be done

     Representation     4      2 modes -  To be done



     Alpha used in Ewald sum =   1.0000
     PHONON       :     13.59s CPU     15.23s WALL



     Representation #  1 mode #   1

     Self-consistent Calculation

      iter #   1 total cpu time :    15.4 secs   av.it.:   4.8
      thresh= 1.000E-02 alpha_mix =  0.700 |ddv_scf|^2 =  1.292E-05

      iter #   2 total cpu time :    15.5 secs   av.it.:   7.7
      thresh= 3.594E-04 alpha_mix =  0.700 |ddv_scf|^2 =  1.057E-05

      iter #   3 total cpu time :    15.7 secs   av.it.:   7.1
      thresh= 3.252E-04 alpha_mix =  0.700 |ddv_scf|^2 =  1.646E-09

      iter #   4 total cpu time :    15.8 secs   av.it.:   7.3
      thresh= 4.057E-06 alpha_mix =  0.700 |ddv_scf|^2 =  2.472E-11

      iter #   5 total cpu time :    15.9 secs   av.it.:   7.2
      thresh= 4.972E-07 alpha_mix =  0.700 |ddv_scf|^2 =  1.639E-13

      iter #   6 total cpu time :    16.0 secs   av.it.:   7.3
      thresh= 4.048E-08 alpha_mix =  0.700 |ddv_scf|^2 =  2.491E-15

      iter #   7 total cpu time :    16.1 secs   av.it.:   7.5
      thresh= 4.991E-09 alpha_mix =  0.700 |ddv_scf|^2 =  8.572E-18

     End of self-consistent calculation

     Convergence has been achieved 


     Representation #  2 mode #   2

     Self-consistent Calculation

      iter #   1 total cpu time :    16.3 secs   av.it.:   5.8
      thresh= 1.000E-02 alpha_mix =  0.700 |ddv_scf|^2 =  2.331E-04

      iter #   2 total cpu time :    16.4 secs   av.it.:   8.0
      thresh= 1.527E-03 alpha_mix =  0.700 |ddv_scf|^2 =  7.992E-04

      iter #   3 total cpu time :    16.4 secs   av.it.:   7.0
      thresh= 2.827E-03 alpha_mix =  0.700 |ddv_scf|^2 =  2.445E-08

      iter #   4 total cpu time :    16.5 secs   av.it.:   8.4
      thresh= 1.564E-05 alpha_mix =  0.700 |ddv_scf|^2 =  7.418E-10

      iter #   5 total cpu time :    16.6 secs   av.it.:   8.3
      thresh= 2.724E-06 alpha_mix =  0.700 |ddv_scf|^2 =  5.214E-11

      iter #   6 total cpu time :    16.7 secs   av.it.:   7.5
      thresh= 7.221E-07 alpha_mix =  0.700 |ddv_scf|^2 =  3.518E-14

      iter #   7 total cpu time :    16.8 secs   av.it.:   7.7
      thresh= 1.876E-08 alpha_mix =  0.700 |ddv_scf|^2 =  3.120E-15

      iter #   8 total cpu time :    16.9 secs   av.it.:   7.6
      thresh= 5.586E-09 alpha_mix =  0.700 |ddv_scf|^2 =  9.483E-17

     End of self-consistent calculation

     Convergence has been achieved 


     Representation #  3 modes #   3  4

     Self-consistent Calculation

      iter #   1 total cpu time :    17.1 secs   av.it.:   5.0
      thresh= 1.000E-02 alpha_mix =  0.700 |ddv_scf|^2 =  6.836E-07

      iter #   2 total cpu time :    17.3 secs   av.it.:   8.8
      thresh= 8.268E-05 alpha_mix =  0.700 |ddv_scf|^2 =  6.273E-08

      iter #   3 total cpu time :    17.5 secs   av.it.:   8.8
      thresh= 2.505E-05 alpha_mix =  0.700 |ddv_scf|^2 =  8.872E-11

      iter #   4 total cpu time :    17.7 secs   av.it.:   8.3
      thresh= 9.419E-07 alpha_mix =  0.700 |ddv_scf|^2 =  2.885E-13

      iter #   5 total cpu time :    17.9 secs   av.it.:   8.7
      thresh= 5.371E-08 alpha_mix =  0.700 |ddv_scf|^2 =  1.106E-15

      iter #   6 total cpu time :    18.1 secs   av.it.:   8.8
      thresh= 3.326E-09 alpha_mix =  0.700 |ddv_scf|^2 =  2.202E-17

     End of self-consistent calculation

     Convergence has been achieved 


     Representation #  4 modes #   5  6

     Self-consistent Calculation

      iter #   1 total cpu time :    18.2 secs   av.it.:   4.8
      thresh= 1.000E-02 alpha_mix =  0.700 |ddv_scf|^2 =  8.157E-08

      iter #   2 total cpu time :    18.4 secs   av.it.:   9.2
      thresh= 2.856E-05 alpha_mix =  0.700 |ddv_scf|^2 =  1.927E-09

      iter #   3 total cpu time :    18.6 secs   av.it.:   8.9
      thresh= 4.390E-06 alpha_mix =  0.700 |ddv_scf|^2 =  6.304E-11

      iter #   4 total cpu time :    18.8 secs   av.it.:   8.9
      thresh= 7.940E-07 alpha_mix =  0.700 |ddv_scf|^2 =  9.713E-14

      iter #   5 total cpu time :    19.0 secs   av.it.:   9.2
      thresh= 3.117E-08 alpha_mix =  0.700 |ddv_scf|^2 =  1.249E-15

      iter #   6 total cpu time :    19.2 secs   av.it.:   9.3
      thresh= 3.534E-09 alpha_mix =  0.700 |ddv_scf|^2 =  5.768E-18

     End of self-consistent calculation

     Convergence has been achieved 

     Number of q in the star =    4
     List of q in the star:
          1   0.500000000  -0.500000000   0.500000000
          2   0.500000000   0.500000000   0.500000000
          3  -0.500000000   0.500000000   0.500000000
          4   0.500000000   0.500000000  -0.500000000

     Diagonalizing the dynamical matrix

     q = (    0.500000000  -0.500000000   0.500000000 ) 

 **************************************************************************
     freq (    1) =       3.243047 [THz] =     108.176394 [cm-1]
     freq (    2) =       3.243047 [THz] =     108.176394 [cm-1]
     freq (    3) =      11.320995 [THz] =     377.627737 [cm-1]
     freq (    4) =      11.448694 [THz] =     381.887330 [cm-1]
     freq (    5) =      14.040440 [THz] =     468.338656 [cm-1]
     freq (    6) =      14.040440 [THz] =     468.338656 [cm-1]
 **************************************************************************

     Calculation of q =    0.0000000   0.5000000   0.0000000

     Parallelization info
     --------------------
     sticks:   dense  smooth     PW     G-vecs:    dense   smooth      PW
     Min          87      87     30                 1070     1070     222
     Max          88      88     31                 1073     1073     225
     Sum         349     349    121                 4285     4285     893


     Title: 
     Ph                                                                         


     bravais-lattice index     =            2
     lattice parameter (alat)  =      10.3000  a.u.
     unit-cell volume          =     273.1818 (a.u.)^3
     number of atoms/cell      =            2
     number of atomic types    =            1
     number of electrons       =         8.00
     number of Kohn-Sham states=            4
     kinetic-energy cutoff     =      24.0000  Ry
     charge density cutoff     =      96.0000  Ry
     Exchange-correlation      = PZ ( 1  1  0  0 0 0)

     celldm(1)=  10.300000  celldm(2)=   0.000000  celldm(3)=   0.000000
     celldm(4)=   0.000000  celldm(5)=   0.000000  celldm(6)=   0.000000

     crystal axes: (cart. coord. in units of alat)
               a(1) = (  -0.500000   0.000000   0.500000 )  
               a(2) = (   0.000000   0.500000   0.500000 )  
               a(3) = (  -0.500000   0.500000   0.000000 )  

     reciprocal axes: (cart. coord. in units 2 pi/alat)
               b(1) = ( -1.000000 -1.000000  1.000000 )  
               b(2) = (  1.000000  1.000000  1.000000 )  
               b(3) = ( -1.000000  1.000000 -1.000000 )  


     PseudoPot. # 1 for Si read from file:
     ../Si.pz-rrkj.UPF
     MD5 check sum: 884b380b739b48e9cd334294cddc9a8d
     Pseudo is Norm-conserving, Zval =  4.0
     Generated using "atomic" code by A. Dal Corso (espresso distribution)
     Using radial grid of 1141 points,  2 beta functions with: 
                l(1) =   0
                l(2) =   1

     atomic species   valence    mass     pseudopotential
        Si             4.00    28.08600     Si( 1.00)

     48 Sym. Ops., with inversion, found



   Cartesian axes

     site n.     atom                  positions (alat units)
         1           Si  tau(   1) = (   0.0000000   0.0000000   0.0000000  )
         2           Si  tau(   2) = (   0.2500000   0.2500000   0.2500000  )

     number of k points=    36
                       cart. coord. in units 2pi/alat
        k(    1) = (   0.0000000   0.0000000   0.0000000), wk =   0.0312500
        k(    2) = (   0.0000000   0.5000000   0.0000000), wk =   0.0000000
        k(    3) = (  -0.2500000   0.2500000  -0.2500000), wk =   0.1250000
        k(    4) = (  -0.2500000   0.7500000  -0.2500000), wk =   0.0000000
        k(    5) = (   0.5000000  -0.5000000   0.5000000), wk =   0.1250000
        k(    6) = (   0.5000000   0.0000000   0.5000000), wk =   0.0000000
        k(    7) = (   0.0000000   0.5000000   0.0000000), wk =   0.0312500
        k(    8) = (   0.0000000   1.0000000   0.0000000), wk =   0.0000000
        k(    9) = (   0.7500000  -0.2500000   0.7500000), wk =   0.1250000
        k(   10) = (   0.7500000   0.2500000   0.7500000), wk =   0.0000000
        k(   11) = (   0.5000000   0.0000000   0.5000000), wk =   0.1250000
        k(   12) = (   0.5000000   0.5000000   0.5000000), wk =   0.0000000
        k(   13) = (   0.0000000  -1.0000000   0.0000000), wk =   0.0312500
        k(   14) = (   0.0000000  -0.5000000   0.0000000), wk =   0.0000000
        k(   15) = (  -0.5000000  -1.0000000   0.0000000), wk =   0.1250000
        k(   16) = (  -0.5000000  -0.5000000   0.0000000), wk =   0.0000000
        k(   17) = (   0.2500000  -0.2500000   0.2500000), wk =   0.1250000
        k(   18) = (   0.2500000   0.2500000   0.2500000), wk =   0.0000000
        k(   19) = (   0.0000000  -0.5000000   0.0000000), wk =   0.0312500
        k(   20) = (   0.0000000   0.0000000   0.0000000), wk =   0.0000000
        k(   21) = (   0.5000000   0.0000000   0.0000000), wk =   0.1250000
        k(   22) = (   0.5000000   0.5000000   0.0000000), wk =   0.0000000
        k(   23) = (  -0.7500000   0.2500000  -0.7500000), wk =   0.1250000
        k(   24) = (  -0.7500000   0.7500000  -0.7500000), wk =   0.0000000
        k(   25) = (  -0.2500000   0.7500000  -0.7500000), wk =   0.2500000
        k(   26) = (  -0.2500000   1.2500000  -0.7500000), wk =   0.0000000
        k(   27) = (  -0.2500000  -0.7500000  -0.7500000), wk =   0.2500000
        k(   28) = (  -0.2500000  -0.2500000  -0.7500000), wk =   0.0000000
        k(   29) = (   0.0000000   0.5000000  -0.5000000), wk =   0.1250000
        k(   30) = (   0.0000000   1.0000000  -0.5000000), wk =   0.0000000
        k(   31) = (   0.0000000  -0.5000000  -0.5000000), wk =   0.1250000
        k(   32) = (   0.0000000   0.0000000  -0.5000000), wk =   0.0000000
        k(   33) = (  -1.0000000   0.0000000   0.0000000), wk =   0.0625000
        k(   34) = (  -1.0000000   0.5000000   0.0000000), wk =   0.0000000
        k(   35) = (  -1.0000000  -0.5000000   0.0000000), wk =   0.0625000
        k(   36) = (  -1.0000000   0.0000000   0.0000000), wk =   0.0000000

     Dense  grid:     4285 G-vectors     FFT dimensions: (  24,  24,  24)

     Estimated max dynamical RAM per process >       0.60 MB

     Estimated total dynamical RAM >       2.38 MB

     The potential is recalculated from file :
     ./tmp/_ph0/silicon.save/charge-density

     Starting wfcs are    8 atomic wfcs

     Band Structure Calculation
     Davidson diagonalization with overlap

     ethr =  1.25E-10,  avg # of iterations =  9.7

     total cpu time spent up to now is        1.1 secs

     End of band structure calculation

          k = 0.0000 0.0000 0.0000 (   537 PWs)   bands (ev):

    -5.9335   5.9572   5.9572   5.9572

          k = 0.0000 0.5000 0.0000 (   560 PWs)   bands (ev):

    -4.8612   2.4230   4.0846   4.0846

          k =-0.2500 0.2500-0.2500 (   543 PWs)   bands (ev):

    -5.1406   2.0298   5.2052   5.2052

          k =-0.2500 0.7500-0.2500 (   542 PWs)   bands (ev):

    -3.2392  -0.4077   2.4324   3.7730

          k = 0.5000-0.5000 0.5000 (   544 PWs)   bands (ev):

    -3.6208  -0.9891   4.7711   4.7711

          k = 0.5000 0.0000 0.5000 (   540 PWs)   bands (ev):

    -3.9073   0.4858   2.2164   4.6429

          k = 0.0000 0.5000 0.0000 (   560 PWs)   bands (ev):

    -4.8612   2.4230   4.0846   4.0846

          k = 0.0000 1.0000 0.0000 (   524 PWs)   bands (ev):

    -1.8277  -1.8277   3.1310   3.1310

          k = 0.7500-0.2500 0.7500 (   542 PWs)   bands (ev):

    -3.2392  -0.4077   2.4324   3.7730

          k = 0.7500 0.2500 0.7500 (   542 PWs)   bands (ev):

    -3.2392  -0.4077   2.4324   3.7730

          k = 0.5000 0.0000 0.5000 (   540 PWs)   bands (ev):

    -3.9073   0.4858   2.2164   4.6429

          k = 0.5000 0.5000 0.5000 (   544 PWs)   bands (ev):

    -3.6208  -0.9891   4.7711   4.7711

          k = 0.0000-1.0000 0.0000 (   524 PWs)   bands (ev):

    -1.8277  -1.8277   3.1310   3.1310

          k = 0.0000-0.5000 0.0000 (   560 PWs)   bands (ev):

    -4.8612   2.4230   4.0846   4.0846

          k =-0.5000-1.0000 0.0000 (   524 PWs)   bands (ev):

    -1.6649  -1.6649   2.1212   2.1212

          k =-0.5000-0.5000 0.0000 (   540 PWs)   bands (ev):

    -3.9073   0.4858   2.2164   4.6429

          k = 0.2500-0.2500 0.2500 (   543 PWs)   bands (ev):

    -5.1406   2.0298   5.2052   5.2052

          k = 0.2500 0.2500 0.2500 (   543 PWs)   bands (ev):

    -5.1406   2.0298   5.2052   5.2052

          k = 0.0000-0.5000 0.0000 (   560 PWs)   bands (ev):

    -4.8612   2.4230   4.0846   4.0846

          k = 0.0000 0.0000 0.0000 (   537 PWs)   bands (ev):

    -5.9335   5.9572   5.9572   5.9572

          k = 0.5000 0.0000 0.0000 (   560 PWs)   bands (ev):

    -4.8612   2.4230   4.0846   4.0846

          k = 0.5000 0.5000 0.0000 (   540 PWs)   bands (ev):

    -3.9073   0.4858   2.2164   4.6429

          k =-0.7500 0.2500-0.7500 (   542 PWs)   bands (ev):

    -3.2392  -0.4077   2.4324   3.7730

          k =-0.7500 0.7500-0.7500 (   543 PWs)   bands (ev):

    -5.1406   2.0298   5.2052   5.2052

          k =-0.2500 0.7500-0.7500 (   542 PWs)   bands (ev):

    -3.2392  -0.4077   2.4324   3.7730

          k =-0.2500 1.2500-0.7500 (   542 PWs)   bands (ev):

    -3.2392  -0.4077   2.4324   3.7730

          k =-0.2500-0.7500-0.7500 (   542 PWs)   bands (ev):

    -3.2392  -0.4077   2.4324   3.7730

          k =-0.2500-0.2500-0.7500 (   542 PWs)   bands (ev):

    -3.2392  -0.4077   2.4324   3.7730

          k = 0.0000 0.5000-0.5000 (   540 PWs)   bands (ev):

    -3.9073   0.4858   2.2164   4.6429

          k = 0.0000 1.0000-0.5000 (   524 PWs)   bands (ev):

    -1.6649  -1.6649   2.1212   2.1212

          k = 0.0000-0.5000-0.5000 (   540 PWs)   bands (ev):

    -3.9073   0.4858   2.2164   4.6429

          k = 0.0000 0.0000-0.5000 (   560 PWs)   bands (ev):

    -4.8612   2.4230   4.0846   4.0846

          k =-1.0000 0.0000 0.0000 (   524 PWs)   bands (ev):

    -1.8277  -1.8277   3.1310   3.1310

          k =-1.0000 0.5000 0.0000 (   524 PWs)   bands (ev):

    -1.6649  -1.6649   2.1212   2.1212

          k =-1.0000-0.5000 0.0000 (   524 PWs)   bands (ev):

    -1.6649  -1.6649   2.1212   2.1212

          k =-1.0000 0.0000 0.0000 (   524 PWs)   bands (ev):

    -1.8277  -1.8277   3.1310   3.1310

     highest occupied level (ev):     5.9572

     Writing output data file silicon.save/

     Ph                                                                         

     bravais-lattice index     =            2
     lattice parameter (alat)  =      10.3000  a.u.
     unit-cell volume          =     273.1818 (a.u.)^3
     number of atoms/cell      =            2
     number of atomic types    =            1
     kinetic-energy cut-off    =      24.0000  Ry
     charge density cut-off    =      96.0000  Ry
     convergence threshold     =      1.0E-16
     beta                      =       0.7000
     number of iterations used =            4
     Exchange-correlation      = PZ ( 1  1  0  0 0 0)


     celldm(1)=   10.30000  celldm(2)=    0.00000  celldm(3)=    0.00000
     celldm(4)=    0.00000  celldm(5)=    0.00000  celldm(6)=    0.00000

     crystal axes: (cart. coord. in units of alat)
               a(1) = ( -0.5000  0.0000  0.5000 )  
               a(2) = (  0.0000  0.5000  0.5000 )  
               a(3) = ( -0.5000  0.5000  0.0000 )  

     reciprocal axes: (cart. coord. in units 2 pi/alat)
               b(1) = ( -1.0000 -1.0000  1.0000 )  
               b(2) = (  1.0000  1.0000  1.0000 )  
               b(3) = ( -1.0000  1.0000 -1.0000 )  


     Atoms inside the unit cell: 

     Cartesian axes

     site n.  atom      mass           positions (alat units)
        1     Si  28.0860   tau(    1) = (    0.00000    0.00000    0.00000  )
        2     Si  28.0860   tau(    2) = (    0.25000    0.25000    0.25000  )

     Computing dynamical matrix for 
                    q = (   0.0000000   0.5000000   0.0000000 )

      8 Sym.Ops. (no q -> -q+G )


     G cutoff =  257.9799  (   1073 G-vectors)     FFT grid: ( 24, 24, 24)
     number of k points=    36

     PseudoPot. # 1 for Si read from file:
     ../Si.pz-rrkj.UPF
     MD5 check sum: 884b380b739b48e9cd334294cddc9a8d
     Pseudo is Norm-conserving, Zval =  4.0
     Generated using "atomic" code by A. Dal Corso (espresso distribution)
     Using radial grid of 1141 points,  2 beta functions with: 
                l(1) =   0
                l(2) =   1

     Mode symmetry, C_4v (4mm)  point group:


     Atomic displacements:
     There are   4 irreducible representations

     Representation     1      1 modes -A_1  G_1 D_1  To be done

     Representation     2      1 modes -B_2  G_4 D_2'  To be done

     Representation     3      2 modes -E    G_5 D_5  To be done

     Representation     4      2 modes -E    G_5 D_5  To be done



     Alpha used in Ewald sum =   1.0000
     PHONON       :     17.53s CPU     19.66s WALL



     Representation #  1 mode #   1

     Self-consistent Calculation

      iter #   1 total cpu time :    19.8 secs   av.it.:   5.7
      thresh= 1.000E-02 alpha_mix =  0.700 |ddv_scf|^2 =  1.662E-03

      iter #   2 total cpu time :    19.9 secs   av.it.:   7.4
      thresh= 4.077E-03 alpha_mix =  0.700 |ddv_scf|^2 =  2.038E-02

      iter #   3 total cpu time :    20.0 secs   av.it.:   6.4
      thresh= 1.000E-02 alpha_mix =  0.700 |ddv_scf|^2 =  1.686E-08

      iter #   4 total cpu time :    20.1 secs   av.it.:   8.4
      thresh= 1.298E-05 alpha_mix =  0.700 |ddv_scf|^2 =  1.088E-09

      iter #   5 total cpu time :    20.3 secs   av.it.:   8.2
      thresh= 3.298E-06 alpha_mix =  0.700 |ddv_scf|^2 =  2.722E-11

      iter #   6 total cpu time :    20.4 secs   av.it.:   7.4
      thresh= 5.217E-07 alpha_mix =  0.700 |ddv_scf|^2 =  1.861E-12

      iter #   7 total cpu time :    20.5 secs   av.it.:   6.4
      thresh= 1.364E-07 alpha_mix =  0.700 |ddv_scf|^2 =  1.114E-14

      iter #   8 total cpu time :    20.6 secs   av.it.:   6.9
      thresh= 1.055E-08 alpha_mix =  0.700 |ddv_scf|^2 =  1.159E-17

     End of self-consistent calculation

     Convergence has been achieved 


     Representation #  2 mode #   2

     Self-consistent Calculation

      iter #   1 total cpu time :    20.7 secs   av.it.:   5.1
      thresh= 1.000E-02 alpha_mix =  0.700 |ddv_scf|^2 =  3.175E-06

      iter #   2 total cpu time :    20.8 secs   av.it.:   8.3
      thresh= 1.782E-04 alpha_mix =  0.700 |ddv_scf|^2 =  7.344E-07

      iter #   3 total cpu time :    21.0 secs   av.it.:   8.0
      thresh= 8.569E-05 alpha_mix =  0.700 |ddv_scf|^2 =  3.933E-09

      iter #   4 total cpu time :    21.1 secs   av.it.:   8.1
      thresh= 6.271E-06 alpha_mix =  0.700 |ddv_scf|^2 =  8.668E-11

      iter #   5 total cpu time :    21.2 secs   av.it.:   7.7
      thresh= 9.310E-07 alpha_mix =  0.700 |ddv_scf|^2 =  1.490E-12

      iter #   6 total cpu time :    21.3 secs   av.it.:   7.7
      thresh= 1.221E-07 alpha_mix =  0.700 |ddv_scf|^2 =  7.546E-16

      iter #   7 total cpu time :    21.4 secs   av.it.:   8.5
      thresh= 2.747E-09 alpha_mix =  0.700 |ddv_scf|^2 =  2.304E-17

     End of self-consistent calculation

     Convergence has been achieved 


     Representation #  3 modes #   3  4

     Self-consistent Calculation

      iter #   1 total cpu time :    21.6 secs   av.it.:   5.4
      thresh= 1.000E-02 alpha_mix =  0.700 |ddv_scf|^2 =  7.495E-07

      iter #   2 total cpu time :    21.9 secs   av.it.:   9.2
      thresh= 8.658E-05 alpha_mix =  0.700 |ddv_scf|^2 =  1.274E-07

      iter #   3 total cpu time :    22.2 secs   av.it.:   8.9
      thresh= 3.569E-05 alpha_mix =  0.700 |ddv_scf|^2 =  1.208E-10

      iter #   4 total cpu time :    22.5 secs   av.it.:   8.7
      thresh= 1.099E-06 alpha_mix =  0.700 |ddv_scf|^2 =  6.025E-12

      iter #   5 total cpu time :    22.7 secs   av.it.:   8.6
      thresh= 2.454E-07 alpha_mix =  0.700 |ddv_scf|^2 =  5.971E-15

      iter #   6 total cpu time :    23.0 secs   av.it.:   9.6
      thresh= 7.727E-09 alpha_mix =  0.700 |ddv_scf|^2 =  2.297E-17

     End of self-consistent calculation

     Convergence has been achieved 


     Representation #  4 modes #   5  6

     Self-consistent Calculation

      iter #   1 total cpu time :    23.2 secs   av.it.:   5.2
      thresh= 1.000E-02 alpha_mix =  0.700 |ddv_scf|^2 =  4.948E-07

      iter #   2 total cpu time :    23.5 secs   av.it.:   9.2
      thresh= 7.034E-05 alpha_mix =  0.700 |ddv_scf|^2 =  8.170E-08

      iter #   3 total cpu time :    23.8 secs   av.it.:   8.9
      thresh= 2.858E-05 alpha_mix =  0.700 |ddv_scf|^2 =  1.288E-10

      iter #   4 total cpu time :    24.0 secs   av.it.:   8.8
      thresh= 1.135E-06 alpha_mix =  0.700 |ddv_scf|^2 =  6.766E-12

      iter #   5 total cpu time :    24.3 secs   av.it.:   8.5
      thresh= 2.601E-07 alpha_mix =  0.700 |ddv_scf|^2 =  7.062E-15

      iter #   6 total cpu time :    24.7 secs   av.it.:   9.6
      thresh= 8.404E-09 alpha_mix =  0.700 |ddv_scf|^2 =  2.957E-17

     End of self-consistent calculation

     Convergence has been achieved 

     Number of q in the star =    6
     List of q in the star:
          1   0.000000000   0.500000000   0.000000000
          2   0.000000000  -0.500000000   0.000000000
          3   0.500000000   0.000000000   0.000000000
          4   0.000000000   0.000000000   0.500000000
          5   0.000000000   0.000000000  -0.500000000
          6  -0.500000000   0.000000000   0.000000000

     Diagonalizing the dynamical matrix

     q = (    0.000000000   0.500000000   0.000000000 ) 

 **************************************************************************
     freq (    1) =       3.834797 [THz] =     127.915070 [cm-1]
     freq (    2) =       3.834797 [THz] =     127.915070 [cm-1]
     freq (    3) =       6.951889 [THz] =     231.890050 [cm-1]
     freq (    4) =      13.679926 [THz] =     456.313225 [cm-1]
     freq (    5) =      13.679926 [THz] =     456.313225 [cm-1]
     freq (    6) =      14.478563 [THz] =     482.952870 [cm-1]
 **************************************************************************

     Mode symmetry, C_4v (4mm)  point group:

     freq (  1 -  2) =        127.9  [cm-1]   --> E    G_5 D_5       
     freq (  3 -  3) =        231.9  [cm-1]   --> A_1  G_1 D_1       
     freq (  4 -  5) =        456.3  [cm-1]   --> E    G_5 D_5       
     freq (  6 -  6) =        483.0  [cm-1]   --> B_2  G_4 D_2'      

     Calculation of q =    0.7500000  -0.2500000   0.7500000

     Parallelization info
     --------------------
     sticks:   dense  smooth     PW     G-vecs:    dense   smooth      PW
     Min          87      87     37                 1070     1070     284
     Max          88      88     38                 1073     1073     285
     Sum         349     349    151                 4285     4285    1139


     Title: 
     Ph                                                                         


     bravais-lattice index     =            2
     lattice parameter (alat)  =      10.3000  a.u.
     unit-cell volume          =     273.1818 (a.u.)^3
     number of atoms/cell      =            2
     number of atomic types    =            1
     number of electrons       =         8.00
     number of Kohn-Sham states=            4
     kinetic-energy cutoff     =      24.0000  Ry
     charge density cutoff     =      96.0000  Ry
     Exchange-correlation      = PZ ( 1  1  0  0 0 0)

     celldm(1)=  10.300000  celldm(2)=   0.000000  celldm(3)=   0.000000
     celldm(4)=   0.000000  celldm(5)=   0.000000  celldm(6)=   0.000000

     crystal axes: (cart. coord. in units of alat)
               a(1) = (  -0.500000   0.000000   0.500000 )  
               a(2) = (   0.000000   0.500000   0.500000 )  
               a(3) = (  -0.500000   0.500000   0.000000 )  

     reciprocal axes: (cart. coord. in units 2 pi/alat)
               b(1) = ( -1.000000 -1.000000  1.000000 )  
               b(2) = (  1.000000  1.000000  1.000000 )  
               b(3) = ( -1.000000  1.000000 -1.000000 )  


     PseudoPot. # 1 for Si read from file:
     ../Si.pz-rrkj.UPF
     MD5 check sum: 884b380b739b48e9cd334294cddc9a8d
     Pseudo is Norm-conserving, Zval =  4.0
     Generated using "atomic" code by A. Dal Corso (espresso distribution)
     Using radial grid of 1141 points,  2 beta functions with: 
                l(1) =   0
                l(2) =   1

     atomic species   valence    mass     pseudopotential
        Si             4.00    28.08600     Si( 1.00)

     48 Sym. Ops., with inversion, found



   Cartesian axes

     site n.     atom                  positions (alat units)
         1           Si  tau(   1) = (   0.0000000   0.0000000   0.0000000  )
         2           Si  tau(   2) = (   0.2500000   0.2500000   0.2500000  )

     number of k points=    80
                       cart. coord. in units 2pi/alat
        k(    1) = (   0.0000000   0.0000000   0.0000000), wk =   0.0312500
        k(    2) = (   0.7500000  -0.2500000   0.7500000), wk =   0.0000000
        k(    3) = (  -0.2500000   0.2500000  -0.2500000), wk =   0.0312500
        k(    4) = (   0.5000000   0.0000000   0.5000000), wk =   0.0000000
        k(    5) = (   0.5000000  -0.5000000   0.5000000), wk =   0.0312500
        k(    6) = (   1.2500000  -0.7500000   1.2500000), wk =   0.0000000
        k(    7) = (   0.0000000   0.5000000   0.0000000), wk =   0.0312500
        k(    8) = (   0.7500000   0.2500000   0.7500000), wk =   0.0000000
        k(    9) = (   0.7500000  -0.2500000   0.7500000), wk =   0.0312500
        k(   10) = (   1.5000000  -0.5000000   1.5000000), wk =   0.0000000
        k(   11) = (   0.5000000   0.0000000   0.5000000), wk =   0.0312500
        k(   12) = (   1.2500000  -0.2500000   1.2500000), wk =   0.0000000
        k(   13) = (   0.0000000  -1.0000000   0.0000000), wk =   0.0312500
        k(   14) = (   0.7500000  -1.2500000   0.7500000), wk =   0.0000000
        k(   15) = (  -0.5000000  -1.0000000   0.0000000), wk =   0.0625000
        k(   16) = (   0.2500000  -1.2500000   0.7500000), wk =   0.0000000
        k(   17) = (  -0.2500000   0.2500000   0.2500000), wk =   0.0625000
        k(   18) = (   0.5000000   0.0000000   1.0000000), wk =   0.0000000
        k(   19) = (   0.2500000   0.2500000   0.2500000), wk =   0.0312500
        k(   20) = (   1.0000000   0.0000000   1.0000000), wk =   0.0000000
        k(   21) = (   0.2500000  -0.2500000   0.2500000), wk =   0.0312500
        k(   22) = (   1.0000000  -0.5000000   1.0000000), wk =   0.0000000
        k(   23) = (  -0.2500000  -0.2500000  -0.2500000), wk =   0.0312500
        k(   24) = (   0.5000000  -0.5000000   0.5000000), wk =   0.0000000
        k(   25) = (   0.2500000  -0.2500000  -0.2500000), wk =   0.0625000
        k(   26) = (   1.0000000  -0.5000000   0.5000000), wk =   0.0000000
        k(   27) = (   0.5000000  -0.5000000  -0.5000000), wk =   0.0625000
        k(   28) = (   1.2500000  -0.7500000   0.2500000), wk =   0.0000000
        k(   29) = (  -0.5000000  -0.5000000  -0.5000000), wk =   0.0312500
        k(   30) = (   0.2500000  -0.7500000   0.2500000), wk =   0.0000000
        k(   31) = (   0.0000000  -0.5000000   0.0000000), wk =   0.0312500
        k(   32) = (   0.7500000  -0.7500000   0.7500000), wk =   0.0000000
        k(   33) = (   0.5000000   0.0000000   0.0000000), wk =   0.0625000
        k(   34) = (   1.2500000  -0.2500000   0.7500000), wk =   0.0000000
        k(   35) = (   0.0000000   0.0000000  -0.5000000), wk =   0.0625000
        k(   36) = (   0.7500000  -0.2500000   0.2500000), wk =   0.0000000
        k(   37) = (   0.7500000  -0.2500000  -0.7500000), wk =   0.0625000
        k(   38) = (   1.5000000  -0.5000000   0.0000000), wk =   0.0000000
        k(   39) = (  -0.7500000  -0.2500000  -0.7500000), wk =   0.0312500
        k(   40) = (   0.0000000  -0.5000000   0.0000000), wk =   0.0000000
        k(   41) = (  -0.7500000   0.2500000  -0.7500000), wk =   0.0312500
        k(   42) = (   0.0000000   0.0000000   0.0000000), wk =   0.0000000
        k(   43) = (  -0.2500000   0.7500000  -0.7500000), wk =   0.0625000
        k(   44) = (   0.5000000   0.5000000   0.0000000), wk =   0.0000000
        k(   45) = (   0.7500000   0.2500000   0.7500000), wk =   0.0312500
        k(   46) = (   1.5000000   0.0000000   1.5000000), wk =   0.0000000
        k(   47) = (  -0.7500000   0.2500000   0.7500000), wk =   0.0625000
        k(   48) = (   0.0000000   0.0000000   1.5000000), wk =   0.0000000
        k(   49) = (  -0.7500000   0.7500000   0.2500000), wk =   0.0625000
        k(   50) = (   0.0000000   0.5000000   1.0000000), wk =   0.0000000
        k(   51) = (  -0.2500000   0.7500000   0.7500000), wk =   0.0625000
        k(   52) = (   0.5000000   0.5000000   1.5000000), wk =   0.0000000
        k(   53) = (  -0.2500000  -0.7500000  -0.7500000), wk =   0.0625000
        k(   54) = (   0.5000000  -1.0000000   0.0000000), wk =   0.0000000
        k(   55) = (   0.7500000  -0.7500000   0.2500000), wk =   0.0625000
        k(   56) = (   1.5000000  -1.0000000   1.0000000), wk =   0.0000000
        k(   57) = (  -0.7500000  -0.7500000   0.2500000), wk =   0.0625000
        k(   58) = (   0.0000000  -1.0000000   1.0000000), wk =   0.0000000
        k(   59) = (   0.2500000   0.7500000   0.7500000), wk =   0.0625000
        k(   60) = (   1.0000000   0.5000000   1.5000000), wk =   0.0000000
        k(   61) = (  -0.2500000  -0.7500000   0.7500000), wk =   0.0625000
        k(   62) = (   0.5000000  -1.0000000   1.5000000), wk =   0.0000000
        k(   63) = (   0.5000000   0.0000000  -0.5000000), wk =   0.0625000
        k(   64) = (   1.2500000  -0.2500000   0.2500000), wk =   0.0000000
        k(   65) = (  -0.5000000   0.0000000  -0.5000000), wk =   0.0312500
        k(   66) = (   0.2500000  -0.2500000   0.2500000), wk =   0.0000000
        k(   67) = (   0.0000000   0.5000000  -0.5000000), wk =   0.0625000
        k(   68) = (   0.7500000   0.2500000   0.2500000), wk =   0.0000000
        k(   69) = (   0.0000000   0.5000000   0.5000000), wk =   0.0625000
        k(   70) = (   0.7500000   0.2500000   1.2500000), wk =   0.0000000
        k(   71) = (   0.0000000  -0.5000000  -0.5000000), wk =   0.0625000
        k(   72) = (   0.7500000  -0.7500000   0.2500000), wk =   0.0000000
        k(   73) = (   0.5000000  -0.5000000   0.0000000), wk =   0.0625000
        k(   74) = (   1.2500000  -0.7500000   0.7500000), wk =   0.0000000
        k(   75) = (  -1.0000000   0.0000000   0.0000000), wk =   0.0625000
        k(   76) = (  -0.2500000  -0.2500000   0.7500000), wk =   0.0000000
        k(   77) = (   0.5000000  -1.0000000   0.0000000), wk =   0.0625000
        k(   78) = (   1.2500000  -1.2500000   0.7500000), wk =   0.0000000
        k(   79) = (  -1.0000000  -0.5000000   0.0000000), wk =   0.0625000
        k(   80) = (  -0.2500000  -0.7500000   0.7500000), wk =   0.0000000

     Dense  grid:     4285 G-vectors     FFT dimensions: (  24,  24,  24)

     Estimated max dynamical RAM per process >       0.60 MB

     Estimated total dynamical RAM >       2.40 MB

     The potential is recalculated from file :
     ./tmp/_ph0/silicon.save/charge-density

     Starting wfcs are    8 atomic wfcs

     Band Structure Calculation
     Davidson diagonalization with overlap

     ethr =  1.25E-10,  avg # of iterations =  9.8

     total cpu time spent up to now is        1.8 secs

     End of band structure calculation

          k = 0.0000 0.0000 0.0000 (   537 PWs)   bands (ev):

    -5.9335   5.9572   5.9572   5.9572

          k = 0.7500-0.2500 0.7500 (   542 PWs)   bands (ev):

    -3.2392  -0.4077   2.4324   3.7730

          k =-0.2500 0.2500-0.2500 (   543 PWs)   bands (ev):

    -5.1406   2.0298   5.2052   5.2052

          k = 0.5000 0.0000 0.5000 (   540 PWs)   bands (ev):

    -3.9073   0.4858   2.2164   4.6429

          k = 0.5000-0.5000 0.5000 (   544 PWs)   bands (ev):

    -3.6208  -0.9891   4.7711   4.7711

          k = 1.2500-0.7500 1.2500 (   543 PWs)   bands (ev):

    -5.1406   2.0298   5.2052   5.2052

          k = 0.0000 0.5000 0.0000 (   560 PWs)   bands (ev):

    -4.8612   2.4230   4.0846   4.0846

          k = 0.7500 0.2500 0.7500 (   542 PWs)   bands (ev):

    -3.2392  -0.4077   2.4324   3.7730

          k = 0.7500-0.2500 0.7500 (   542 PWs)   bands (ev):

    -3.2392  -0.4077   2.4324   3.7730

          k = 1.5000-0.5000 1.5000 (   544 PWs)   bands (ev):

    -3.6208  -0.9891   4.7711   4.7711

          k = 0.5000 0.0000 0.5000 (   540 PWs)   bands (ev):

    -3.9073   0.4858   2.2164   4.6429

          k = 1.2500-0.2500 1.2500 (   542 PWs)   bands (ev):

    -3.2392  -0.4077   2.4324   3.7730

          k = 0.0000-1.0000 0.0000 (   524 PWs)   bands (ev):

    -1.8277  -1.8277   3.1310   3.1310

          k = 0.7500-1.2500 0.7500 (   543 PWs)   bands (ev):

    -5.1406   2.0298   5.2052   5.2052

          k =-0.5000-1.0000 0.0000 (   524 PWs)   bands (ev):

    -1.6649  -1.6649   2.1212   2.1212

          k = 0.2500-1.2500 0.7500 (   542 PWs)   bands (ev):

    -3.2392  -0.4077   2.4324   3.7730

          k =-0.2500 0.2500 0.2500 (   543 PWs)   bands (ev):

    -5.1406   2.0298   5.2052   5.2052

          k = 0.5000 0.0000 1.0000 (   524 PWs)   bands (ev):

    -1.6649  -1.6649   2.1212   2.1212

          k = 0.2500 0.2500 0.2500 (   543 PWs)   bands (ev):

    -5.1406   2.0298   5.2052   5.2052

          k = 1.0000 0.0000 1.0000 (   524 PWs)   bands (ev):

    -1.8277  -1.8277   3.1310   3.1310

          k = 0.2500-0.2500 0.2500 (   543 PWs)   bands (ev):

    -5.1406   2.0298   5.2052   5.2052

          k = 1.0000-0.5000 1.0000 (   560 PWs)   bands (ev):

    -4.8612   2.4230   4.0846   4.0846

          k =-0.2500-0.2500-0.2500 (   543 PWs)   bands (ev):

    -5.1406   2.0298   5.2052   5.2052

          k = 0.5000-0.5000 0.5000 (   544 PWs)   bands (ev):

    -3.6208  -0.9891   4.7711   4.7711

          k = 0.2500-0.2500-0.2500 (   543 PWs)   bands (ev):

    -5.1406   2.0298   5.2052   5.2052

          k = 1.0000-0.5000 0.5000 (   540 PWs)   bands (ev):

    -3.9073   0.4858   2.2164   4.6429

          k = 0.5000-0.5000-0.5000 (   544 PWs)   bands (ev):

    -3.6208  -0.9891   4.7711   4.7711

          k = 1.2500-0.7500 0.2500 (   542 PWs)   bands (ev):

    -3.2392  -0.4077   2.4324   3.7730

          k =-0.5000-0.5000-0.5000 (   544 PWs)   bands (ev):

    -3.6208  -0.9891   4.7711   4.7711

          k = 0.2500-0.7500 0.2500 (   542 PWs)   bands (ev):

    -3.2392  -0.4077   2.4324   3.7730

          k = 0.0000-0.5000 0.0000 (   560 PWs)   bands (ev):

    -4.8612   2.4230   4.0846   4.0846

          k = 0.7500-0.7500 0.7500 (   543 PWs)   bands (ev):

    -5.1406   2.0298   5.2052   5.2052

          k = 0.5000 0.0000 0.0000 (   560 PWs)   bands (ev):

    -4.8612   2.4230   4.0846   4.0846

          k = 1.2500-0.2500 0.7500 (   542 PWs)   bands (ev):

    -3.2392  -0.4077   2.4324   3.7730

          k = 0.0000 0.0000-0.5000 (   560 PWs)   bands (ev):

    -4.8612   2.4230   4.0846   4.0846

          k = 0.7500-0.2500 0.2500 (   542 PWs)   bands (ev):

    -3.2392  -0.4077   2.4324   3.7730

          k = 0.7500-0.2500-0.7500 (   542 PWs)   bands (ev):

    -3.2392  -0.4077   2.4324   3.7730

          k = 1.5000-0.5000 0.0000 (   540 PWs)   bands (ev):

    -3.9073   0.4858   2.2164   4.6429

          k =-0.7500-0.2500-0.7500 (   542 PWs)   bands (ev):

    -3.2392  -0.4077   2.4324   3.7730

          k = 0.0000-0.5000 0.0000 (   560 PWs)   bands (ev):

    -4.8612   2.4230   4.0846   4.0846

          k =-0.7500 0.2500-0.7500 (   542 PWs)   bands (ev):

    -3.2392  -0.4077   2.4324   3.7730

          k = 0.0000 0.0000 0.0000 (   537 PWs)   bands (ev):

    -5.9335   5.9572   5.9572   5.9572

          k =-0.2500 0.7500-0.7500 (   542 PWs)   bands (ev):

    -3.2392  -0.4077   2.4324   3.7730

          k = 0.5000 0.5000 0.0000 (   540 PWs)   bands (ev):

    -3.9073   0.4858   2.2164   4.6429

          k = 0.7500 0.2500 0.7500 (   542 PWs)   bands (ev):

    -3.2392  -0.4077   2.4324   3.7730

          k = 1.5000 0.0000 1.5000 (   540 PWs)   bands (ev):

    -3.9073   0.4858   2.2164   4.6429

          k =-0.7500 0.2500 0.7500 (   542 PWs)   bands (ev):

    -3.2392  -0.4077   2.4324   3.7730

          k = 0.0000 0.0000 1.5000 (   560 PWs)   bands (ev):

    -4.8612   2.4230   4.0846   4.0846

          k =-0.7500 0.7500 0.2500 (   542 PWs)   bands (ev):

    -3.2392  -0.4077   2.4324   3.7730

          k = 0.0000 0.5000 1.0000 (   524 PWs)   bands (ev):

    -1.6649  -1.6649   2.1212   2.1212

          k =-0.2500 0.7500 0.7500 (   542 PWs)   bands (ev):

    -3.2392  -0.4077   2.4324   3.7730

          k = 0.5000 0.5000 1.5000 (   544 PWs)   bands (ev):

    -3.6208  -0.9891   4.7711   4.7711

          k =-0.2500-0.7500-0.7500 (   542 PWs)   bands (ev):

    -3.2392  -0.4077   2.4324   3.7730

          k = 0.5000-1.0000 0.0000 (   524 PWs)   bands (ev):

    -1.6649  -1.6649   2.1212   2.1212

          k = 0.7500-0.7500 0.2500 (   542 PWs)   bands (ev):

    -3.2392  -0.4077   2.4324   3.7730

          k = 1.5000-1.0000 1.0000 (   560 PWs)   bands (ev):

    -4.8612   2.4230   4.0846   4.0846

          k =-0.7500-0.7500 0.2500 (   542 PWs)   bands (ev):

    -3.2392  -0.4077   2.4324   3.7730

          k = 0.0000-1.0000 1.0000 (   524 PWs)   bands (ev):

    -1.8277  -1.8277   3.1310   3.1310

          k = 0.2500 0.7500 0.7500 (   542 PWs)   bands (ev):

    -3.2392  -0.4077   2.4324   3.7730

          k = 1.0000 0.5000 1.5000 (   540 PWs)   bands (ev):

    -3.9073   0.4858   2.2164   4.6429

          k =-0.2500-0.7500 0.7500 (   542 PWs)   bands (ev):

    -3.2392  -0.4077   2.4324   3.7730

          k = 0.5000-1.0000 1.5000 (   540 PWs)   bands (ev):

    -3.9073   0.4858   2.2164   4.6429

          k = 0.5000 0.0000-0.5000 (   540 PWs)   bands (ev):

    -3.9073   0.4858   2.2164   4.6429

          k = 1.2500-0.2500 0.2500 (   542 PWs)   bands (ev):

    -3.2392  -0.4077   2.4324   3.7730

          k =-0.5000 0.0000-0.5000 (   540 PWs)   bands (ev):

    -3.9073   0.4858   2.2164   4.6429

          k = 0.2500-0.2500 0.2500 (   543 PWs)   bands (ev):

    -5.1406   2.0298   5.2052   5.2052

          k = 0.0000 0.5000-0.5000 (   540 PWs)   bands (ev):

    -3.9073   0.4858   2.2164   4.6429

          k = 0.7500 0.2500 0.2500 (   542 PWs)   bands (ev):

    -3.2392  -0.4077   2.4324   3.7730

          k = 0.0000 0.5000 0.5000 (   540 PWs)   bands (ev):

    -3.9073   0.4858   2.2164   4.6429

          k = 0.7500 0.2500 1.2500 (   542 PWs)   bands (ev):

    -3.2392  -0.4077   2.4324   3.7730

          k = 0.0000-0.5000-0.5000 (   540 PWs)   bands (ev):

    -3.9073   0.4858   2.2164   4.6429

          k = 0.7500-0.7500 0.2500 (   542 PWs)   bands (ev):

    -3.2392  -0.4077   2.4324   3.7730

          k = 0.5000-0.5000 0.0000 (   540 PWs)   bands (ev):

    -3.9073   0.4858   2.2164   4.6429

          k = 1.2500-0.7500 0.7500 (   543 PWs)   bands (ev):

    -5.1406   2.0298   5.2052   5.2052

          k =-1.0000 0.0000 0.0000 (   524 PWs)   bands (ev):

    -1.8277  -1.8277   3.1310   3.1310

          k =-0.2500-0.2500 0.7500 (   542 PWs)   bands (ev):

    -3.2392  -0.4077   2.4324   3.7730

          k = 0.5000-1.0000 0.0000 (   524 PWs)   bands (ev):

    -1.6649  -1.6649   2.1212   2.1212

          k = 1.2500-1.2500 0.7500 (   543 PWs)   bands (ev):

    -5.1406   2.0298   5.2052   5.2052

          k =-1.0000-0.5000 0.0000 (   524 PWs)   bands (ev):

    -1.6649  -1.6649   2.1212   2.1212

          k =-0.2500-0.7500 0.7500 (   542 PWs)   bands (ev):

[...]
     lattice parameter (alat)  =      10.3000  a.u.
     unit-cell volume          =     273.1818 (a.u.)^3
     number of atoms/cell      =            2
     number of atomic types    =            1
     number of electrons       =         8.00
     number of Kohn-Sham states=            4
     kinetic-energy cutoff     =      24.0000  Ry
     charge density cutoff     =      96.0000  Ry
     Exchange-correlation      = PZ ( 1  1  0  0 0 0)

     celldm(1)=  10.300000  celldm(2)=   0.000000  celldm(3)=   0.000000
     celldm(4)=   0.000000  celldm(5)=   0.000000  celldm(6)=   0.000000

     crystal axes: (cart. coord. in units of alat)
               a(1) = (  -0.500000   0.000000   0.500000 )  
               a(2) = (   0.000000   0.500000   0.500000 )  
               a(3) = (  -0.500000   0.500000   0.000000 )  

     reciprocal axes: (cart. coord. in units 2 pi/alat)
               b(1) = ( -1.000000 -1.000000  1.000000 )  
               b(2) = (  1.000000  1.000000  1.000000 )  
               b(3) = ( -1.000000  1.000000 -1.000000 )  


     PseudoPot. # 1 for Si read from file:
     ../Si.pz-rrkj.UPF
     MD5 check sum: 884b380b739b48e9cd334294cddc9a8d
     Pseudo is Norm-conserving, Zval =  4.0
     Generated using "atomic" code by A. Dal Corso (espresso distribution)
     Using radial grid of 1141 points,  2 beta functions with: 
                l(1) =   0
                l(2) =   1

     atomic species   valence    mass     pseudopotential
        Si             4.00    28.08600     Si( 1.00)

     48 Sym. Ops., with inversion, found



   Cartesian axes

     site n.     atom                  positions (alat units)
         1           Si  tau(   1) = (   0.0000000   0.0000000   0.0000000  )
         2           Si  tau(   2) = (   0.2500000   0.2500000   0.2500000  )

     number of k points=    32
                       cart. coord. in units 2pi/alat
        k(    1) = (   0.0000000   0.0000000   0.0000000), wk =   0.0312500
        k(    2) = (  -0.5000000  -1.0000000   0.0000000), wk =   0.0000000
        k(    3) = (  -0.2500000   0.2500000  -0.2500000), wk =   0.2500000
        k(    4) = (  -0.7500000  -0.7500000  -0.2500000), wk =   0.0000000
        k(    5) = (   0.5000000  -0.5000000   0.5000000), wk =   0.1250000
        k(    6) = (   0.0000000  -1.5000000   0.5000000), wk =   0.0000000
        k(    7) = (   0.0000000   0.5000000   0.0000000), wk =   0.1250000
        k(    8) = (  -0.5000000  -0.5000000   0.0000000), wk =   0.0000000
        k(    9) = (   0.7500000  -0.2500000   0.7500000), wk =   0.2500000
        k(   10) = (   0.2500000  -1.2500000   0.7500000), wk =   0.0000000
        k(   11) = (   0.5000000   0.0000000   0.5000000), wk =   0.1250000
        k(   12) = (   0.0000000  -1.0000000   0.5000000), wk =   0.0000000
        k(   13) = (   0.0000000  -1.0000000   0.0000000), wk =   0.0625000
        k(   14) = (  -0.5000000  -2.0000000   0.0000000), wk =   0.0000000
        k(   15) = (  -0.5000000  -1.0000000   0.0000000), wk =   0.0312500
        k(   16) = (  -1.0000000  -2.0000000   0.0000000), wk =   0.0000000
        k(   17) = (   0.5000000   0.0000000   0.0000000), wk =   0.0625000
        k(   18) = (   0.0000000  -1.0000000   0.0000000), wk =   0.0000000
        k(   19) = (  -0.7500000   0.2500000  -0.7500000), wk =   0.2500000
        k(   20) = (  -1.2500000  -0.7500000  -0.7500000), wk =   0.0000000
        k(   21) = (  -0.2500000   0.7500000   0.7500000), wk =   0.2500000
        k(   22) = (  -0.7500000  -0.2500000   0.7500000), wk =   0.0000000
        k(   23) = (  -0.5000000   0.0000000  -0.5000000), wk =   0.1250000
        k(   24) = (  -1.0000000  -1.0000000  -0.5000000), wk =   0.0000000
        k(   25) = (   0.0000000   0.5000000   0.5000000), wk =   0.1250000
        k(   26) = (  -0.5000000  -0.5000000   0.5000000), wk =   0.0000000
        k(   27) = (  -1.0000000   0.0000000   0.0000000), wk =   0.0312500
        k(   28) = (  -1.5000000  -1.0000000   0.0000000), wk =   0.0000000
        k(   29) = (   0.0000000   1.0000000   0.5000000), wk =   0.1250000
        k(   30) = (  -0.5000000   0.0000000   0.5000000), wk =   0.0000000
        k(   31) = (   0.5000000   1.0000000   0.0000000), wk =   0.0312500
        k(   32) = (   0.0000000   0.0000000   0.0000000), wk =   0.0000000

     Dense  grid:     4285 G-vectors     FFT dimensions: (  24,  24,  24)

     Estimated max dynamical RAM per process >       0.60 MB

     Estimated total dynamical RAM >       2.40 MB

     The potential is recalculated from file :
     ./tmp/_ph0/silicon.save/charge-density

     Starting wfcs are    8 atomic wfcs

     Band Structure Calculation
     Davidson diagonalization with overlap

     ethr =  1.25E-10,  avg # of iterations =  9.4

     total cpu time spent up to now is        2.9 secs

     End of band structure calculation

          k = 0.0000 0.0000 0.0000 (   537 PWs)   bands (ev):

    -5.9335   5.9572   5.9572   5.9572

          k =-0.5000-1.0000 0.0000 (   524 PWs)   bands (ev):

    -1.6649  -1.6649   2.1212   2.1212

          k =-0.2500 0.2500-0.2500 (   543 PWs)   bands (ev):

    -5.1406   2.0298   5.2052   5.2052

          k =-0.7500-0.7500-0.2500 (   542 PWs)   bands (ev):

    -3.2392  -0.4077   2.4324   3.7730

          k = 0.5000-0.5000 0.5000 (   544 PWs)   bands (ev):

    -3.6208  -0.9891   4.7711   4.7711

          k = 0.0000-1.5000 0.5000 (   540 PWs)   bands (ev):

    -3.9073   0.4858   2.2164   4.6429

          k = 0.0000 0.5000 0.0000 (   560 PWs)   bands (ev):

    -4.8612   2.4230   4.0846   4.0846

          k =-0.5000-0.5000 0.0000 (   540 PWs)   bands (ev):

    -3.9073   0.4858   2.2164   4.6429

          k = 0.7500-0.2500 0.7500 (   542 PWs)   bands (ev):

    -3.2392  -0.4077   2.4324   3.7730

          k = 0.2500-1.2500 0.7500 (   542 PWs)   bands (ev):

    -3.2392  -0.4077   2.4324   3.7730

          k = 0.5000 0.0000 0.5000 (   540 PWs)   bands (ev):

    -3.9073   0.4858   2.2164   4.6429

          k = 0.0000-1.0000 0.5000 (   524 PWs)   bands (ev):

    -1.6649  -1.6649   2.1212   2.1212

          k = 0.0000-1.0000 0.0000 (   524 PWs)   bands (ev):

    -1.8277  -1.8277   3.1310   3.1310

          k =-0.5000-2.0000 0.0000 (   560 PWs)   bands (ev):

    -4.8612   2.4230   4.0846   4.0846

          k =-0.5000-1.0000 0.0000 (   524 PWs)   bands (ev):

    -1.6649  -1.6649   2.1212   2.1212

          k =-1.0000-2.0000 0.0000 (   524 PWs)   bands (ev):

    -1.8277  -1.8277   3.1310   3.1310

          k = 0.5000 0.0000 0.0000 (   560 PWs)   bands (ev):

    -4.8612   2.4230   4.0846   4.0846

          k = 0.0000-1.0000 0.0000 (   524 PWs)   bands (ev):

    -1.8277  -1.8277   3.1310   3.1310

          k =-0.7500 0.2500-0.7500 (   542 PWs)   bands (ev):

    -3.2392  -0.4077   2.4324   3.7730

          k =-1.2500-0.7500-0.7500 (   543 PWs)   bands (ev):

    -5.1406   2.0298   5.2052   5.2052

          k =-0.2500 0.7500 0.7500 (   542 PWs)   bands (ev):

    -3.2392  -0.4077   2.4324   3.7730

          k =-0.7500-0.2500 0.7500 (   542 PWs)   bands (ev):

    -3.2392  -0.4077   2.4324   3.7730

          k =-0.5000 0.0000-0.5000 (   540 PWs)   bands (ev):

    -3.9073   0.4858   2.2164   4.6429

          k =-1.0000-1.0000-0.5000 (   560 PWs)   bands (ev):

    -4.8612   2.4230   4.0846   4.0846

          k = 0.0000 0.5000 0.5000 (   540 PWs)   bands (ev):

    -3.9073   0.4858   2.2164   4.6429

          k =-0.5000-0.5000 0.5000 (   544 PWs)   bands (ev):

    -3.6208  -0.9891   4.7711   4.7711

          k =-1.0000 0.0000 0.0000 (   524 PWs)   bands (ev):

    -1.8277  -1.8277   3.1310   3.1310

          k =-1.5000-1.0000 0.0000 (   524 PWs)   bands (ev):

    -1.6649  -1.6649   2.1212   2.1212

          k = 0.0000 1.0000 0.5000 (   524 PWs)   bands (ev):

    -1.6649  -1.6649   2.1212   2.1212

          k =-0.5000 0.0000 0.5000 (   540 PWs)   bands (ev):

    -3.9073   0.4858   2.2164   4.6429

          k = 0.5000 1.0000 0.0000 (   524 PWs)   bands (ev):

    -1.6649  -1.6649   2.1212   2.1212

          k = 0.0000 0.0000 0.0000 (   537 PWs)   bands (ev):

    -5.9335   5.9572   5.9572   5.9572

     highest occupied level (ev):     5.9572

     Writing output data file silicon.save/

     Ph                                                                         

     bravais-lattice index     =            2
     lattice parameter (alat)  =      10.3000  a.u.
     unit-cell volume          =     273.1818 (a.u.)^3
     number of atoms/cell      =            2
     number of atomic types    =            1
     kinetic-energy cut-off    =      24.0000  Ry
     charge density cut-off    =      96.0000  Ry
     convergence threshold     =      1.0E-16
     beta                      =       0.7000
     number of iterations used =            4
     Exchange-correlation      = PZ ( 1  1  0  0 0 0)


     celldm(1)=   10.30000  celldm(2)=    0.00000  celldm(3)=    0.00000
     celldm(4)=    0.00000  celldm(5)=    0.00000  celldm(6)=    0.00000

     crystal axes: (cart. coord. in units of alat)
               a(1) = ( -0.5000  0.0000  0.5000 )  
               a(2) = (  0.0000  0.5000  0.5000 )  
               a(3) = ( -0.5000  0.5000  0.0000 )  

     reciprocal axes: (cart. coord. in units 2 pi/alat)
               b(1) = ( -1.0000 -1.0000  1.0000 )  
               b(2) = (  1.0000  1.0000  1.0000 )  
               b(3) = ( -1.0000  1.0000 -1.0000 )  


     Atoms inside the unit cell: 

     Cartesian axes

     site n.  atom      mass           positions (alat units)
        1     Si  28.0860   tau(    1) = (    0.00000    0.00000    0.00000  )
        2     Si  28.0860   tau(    2) = (    0.25000    0.25000    0.25000  )

     Computing dynamical matrix for 
                    q = (  -0.5000000  -1.0000000   0.0000000 )

      8 Sym.Ops. (no q -> -q+G )


     G cutoff =  257.9799  (   1073 G-vectors)     FFT grid: ( 24, 24, 24)
     number of k points=    32

     PseudoPot. # 1 for Si read from file:
     ../Si.pz-rrkj.UPF
     MD5 check sum: 884b380b739b48e9cd334294cddc9a8d
     Pseudo is Norm-conserving, Zval =  4.0
     Generated using "atomic" code by A. Dal Corso (espresso distribution)
     Using radial grid of 1141 points,  2 beta functions with: 
                l(1) =   0
                l(2) =   1


     Atomic displacements:
     There are   3 irreducible representations

     Representation     1      2 modes -  To be done

     Representation     2      2 modes -  To be done

     Representation     3      2 modes -  To be done



     Alpha used in Ewald sum =   1.0000
     PHONON       :     51.26s CPU     58.15s WALL



     Representation #  1 modes #   1  2

     Self-consistent Calculation

      iter #   1 total cpu time :    58.3 secs   av.it.:   5.6
      thresh= 1.000E-02 alpha_mix =  0.700 |ddv_scf|^2 =  5.866E-06

      iter #   2 total cpu time :    58.6 secs   av.it.:   9.0
      thresh= 2.422E-04 alpha_mix =  0.700 |ddv_scf|^2 =  7.432E-06

      iter #   3 total cpu time :    59.0 secs   av.it.:   8.5
      thresh= 2.726E-04 alpha_mix =  0.700 |ddv_scf|^2 =  1.103E-09

      iter #   4 total cpu time :    59.3 secs   av.it.:   8.8
      thresh= 3.322E-06 alpha_mix =  0.700 |ddv_scf|^2 =  2.628E-11

      iter #   5 total cpu time :    59.7 secs   av.it.:   8.4
      thresh= 5.127E-07 alpha_mix =  0.700 |ddv_scf|^2 =  8.206E-14

      iter #   6 total cpu time :    60.0 secs   av.it.:   8.2
      thresh= 2.865E-08 alpha_mix =  0.700 |ddv_scf|^2 =  1.412E-15

      iter #   7 total cpu time :    60.3 secs   av.it.:   8.8
      thresh= 3.758E-09 alpha_mix =  0.700 |ddv_scf|^2 =  6.369E-18

     End of self-consistent calculation

     Convergence has been achieved 


     Representation #  2 modes #   3  4

     Self-consistent Calculation

      iter #   1 total cpu time :    60.5 secs   av.it.:   5.6
      thresh= 1.000E-02 alpha_mix =  0.700 |ddv_scf|^2 =  2.968E-06

      iter #   2 total cpu time :    60.8 secs   av.it.:   9.0
      thresh= 1.723E-04 alpha_mix =  0.700 |ddv_scf|^2 =  2.057E-06

      iter #   3 total cpu time :    61.2 secs   av.it.:   8.6
      thresh= 1.434E-04 alpha_mix =  0.700 |ddv_scf|^2 =  2.034E-10

      iter #   4 total cpu time :    61.5 secs   av.it.:   8.6
      thresh= 1.426E-06 alpha_mix =  0.700 |ddv_scf|^2 =  1.295E-11

      iter #   5 total cpu time :    61.7 secs   av.it.:   8.5
      thresh= 3.599E-07 alpha_mix =  0.700 |ddv_scf|^2 =  1.994E-14

      iter #   6 total cpu time :    62.1 secs   av.it.:   9.2
      thresh= 1.412E-08 alpha_mix =  0.700 |ddv_scf|^2 =  2.897E-16

      iter #   7 total cpu time :    62.4 secs   av.it.:   9.1
      thresh= 1.702E-09 alpha_mix =  0.700 |ddv_scf|^2 =  7.598E-17

     End of self-consistent calculation

     Convergence has been achieved 


     Representation #  3 modes #   5  6

     Self-consistent Calculation

      iter #   1 total cpu time :    62.5 secs   av.it.:   5.7
      thresh= 1.000E-02 alpha_mix =  0.700 |ddv_scf|^2 =  3.596E-06

      iter #   2 total cpu time :    62.8 secs   av.it.:   9.2
      thresh= 1.896E-04 alpha_mix =  0.700 |ddv_scf|^2 =  2.562E-06

      iter #   3 total cpu time :    63.0 secs   av.it.:   8.5
      thresh= 1.601E-04 alpha_mix =  0.700 |ddv_scf|^2 =  1.761E-10

      iter #   4 total cpu time :    63.3 secs   av.it.:   8.8
      thresh= 1.327E-06 alpha_mix =  0.700 |ddv_scf|^2 =  2.124E-11

      iter #   5 total cpu time :    63.6 secs   av.it.:   8.6
      thresh= 4.609E-07 alpha_mix =  0.700 |ddv_scf|^2 =  1.025E-14

      iter #   6 total cpu time :    63.9 secs   av.it.:   9.2
      thresh= 1.012E-08 alpha_mix =  0.700 |ddv_scf|^2 =  2.193E-16

      iter #   7 total cpu time :    64.2 secs   av.it.:   9.2
      thresh= 1.481E-09 alpha_mix =  0.700 |ddv_scf|^2 =  1.816E-17

     End of self-consistent calculation

     Convergence has been achieved 

     Number of q in the star =    6
     List of q in the star:
          1  -0.500000000  -1.000000000   0.000000000
          2   0.000000000   1.000000000   0.500000000
          3   0.000000000  -1.000000000  -0.500000000
          4   0.500000000   1.000000000   0.000000000
          5  -1.000000000  -0.500000000   0.000000000
          6   0.000000000  -0.500000000  -1.000000000

     Diagonalizing the dynamical matrix

     q = (   -0.500000000  -1.000000000   0.000000000 ) 

 **************************************************************************
     freq (    1) =       6.405693 [THz] =     213.670926 [cm-1]
     freq (    2) =       6.405693 [THz] =     213.670926 [cm-1]
     freq (    3) =      10.156567 [THz] =     338.786604 [cm-1]
     freq (    4) =      10.156567 [THz] =     338.786604 [cm-1]
     freq (    5) =      13.075407 [THz] =     436.148642 [cm-1]
     freq (    6) =      13.075407 [THz] =     436.148642 [cm-1]
 **************************************************************************

     init_run     :      0.13s CPU      0.13s WALL (       7 calls)
     electrons    :      2.39s CPU      2.67s WALL (       7 calls)

     Called by init_run:
     wfcinit      :      0.00s CPU      0.00s WALL (       7 calls)
     potinit      :      0.00s CPU      0.00s WALL (       7 calls)
     hinit0       :      0.10s CPU      0.10s WALL (       7 calls)

     Called by electrons:
     c_bands      :      2.38s CPU      2.67s WALL (       7 calls)
     v_of_rho     :      0.00s CPU      0.00s WALL (       8 calls)

     Called by c_bands:
     init_us_2    :      0.19s CPU      0.21s WALL (    7404 calls)
     cegterg      :      2.00s CPU      2.23s WALL (     292 calls)

     Called by sum_band:

     Called by *egterg:
     h_psi        :     38.31s CPU     43.58s WALL (   75088 calls)
     g_psi        :      0.02s CPU      0.02s WALL (    2822 calls)
     cdiaghg      :      0.16s CPU      0.18s WALL (    3114 calls)

     Called by h_psi:
     h_psi:pot    :     38.03s CPU     43.27s WALL (   75088 calls)
     h_psi:calbec :      1.33s CPU      1.51s WALL (   75088 calls)
     vloc_psi     :     35.69s CPU     40.61s WALL (   75088 calls)
     add_vuspsi   :      0.54s CPU      0.61s WALL (   75088 calls)

     General routines
     calbec       :      1.93s CPU      2.21s WALL (  152030 calls)
     fft          :      0.39s CPU      0.40s WALL (    1151 calls)
     ffts         :      0.11s CPU      0.13s WALL (    1164 calls)
     fftw         :     38.08s CPU     43.34s WALL (  662048 calls)
     davcio       :      0.31s CPU      0.36s WALL (   37955 calls)

     Parallel routines
     fft_scatt_xy :      5.94s CPU      6.80s WALL (  664363 calls)
     fft_scatt_yz :     13.40s CPU     15.22s WALL (  664363 calls)

     PHONON       :     56.67s CPU   1m 4.23s WALL

     INITIALIZATION: 
     phq_setup    :      0.03s CPU      0.03s WALL (       8 calls)
     phq_init     :      0.20s CPU      0.21s WALL (       8 calls)

     phq_init     :      0.20s CPU      0.21s WALL (       8 calls)
     init_vloc    :      0.01s CPU      0.01s WALL (       8 calls)
     init_us_1    :      0.05s CPU      0.05s WALL (       8 calls)

     DYNAMICAL MATRIX:
     dynmat0      :      0.04s CPU      0.04s WALL (       8 calls)
     phqscf       :     52.21s CPU     59.30s WALL (       8 calls)
     dynmatrix    :      0.02s CPU      0.02s WALL (       8 calls)

     phqscf       :     52.21s CPU     59.30s WALL (       8 calls)
     solve_linter :     52.04s CPU     59.09s WALL (      32 calls)
     drhodv       :      0.12s CPU      0.13s WALL (      32 calls)

     dynmat0      :      0.04s CPU      0.04s WALL (       8 calls)
     dynmat_us    :      0.03s CPU      0.03s WALL (       8 calls)
     d2ionq       :      0.00s CPU      0.00s WALL (       8 calls)

     dynmat_us    :      0.03s CPU      0.03s WALL (       8 calls)

     phqscf       :     52.21s CPU     59.30s WALL (       8 calls)
     solve_linter :     52.04s CPU     59.09s WALL (      32 calls)

     solve_linter :     52.04s CPU     59.09s WALL (      32 calls)
     dvqpsi_us    :      0.69s CPU      0.77s WALL (     972 calls)
     ortho        :      0.17s CPU      0.19s WALL (    7611 calls)
     cgsolve      :     40.78s CPU     46.44s WALL (    7611 calls)
     incdrhoscf   :      4.04s CPU      4.62s WALL (    7587 calls)
     vpsifft      :      3.49s CPU      4.01s WALL (    6519 calls)
     dv_of_drho   :      0.40s CPU      0.41s WALL (     373 calls)
     mix_pot      :      0.10s CPU      0.14s WALL (     260 calls)
     psymdvscf    :      2.43s CPU      2.51s WALL (     254 calls)

     dvqpsi_us    :      0.69s CPU      0.77s WALL (     972 calls)
     dvqpsi_us_on :      0.05s CPU      0.05s WALL (     972 calls)

     cgsolve      :     40.78s CPU     46.44s WALL (    7611 calls)
     ch_psi       :     39.71s CPU     45.20s WALL (   71682 calls)

     ch_psi       :     39.71s CPU     45.20s WALL (   71682 calls)
     h_psi        :     38.31s CPU     43.58s WALL (   75088 calls)
     last         :      2.37s CPU      2.70s WALL (   71682 calls)

     h_psi        :     38.31s CPU     43.58s WALL (   75088 calls)
     add_vuspsi   :      0.54s CPU      0.61s WALL (   75088 calls)

     incdrhoscf   :      4.04s CPU      4.62s WALL (    7587 calls)


      General routines
     calbec       :      1.93s CPU      2.21s WALL (  152030 calls)
     fft          :      0.39s CPU      0.40s WALL (    1151 calls)
     ffts         :      0.11s CPU      0.13s WALL (    1164 calls)
     fftw         :     38.08s CPU     43.34s WALL (  662048 calls)
     davcio       :      0.31s CPU      0.36s WALL (   37955 calls)
     write_rec    :      0.27s CPU      0.40s WALL (     292 calls)


     PHONON       :     56.67s CPU   1m 4.23s WALL


   This run was terminated on:  10:32:14  25Jun2019            

=------------------------------------------------------------------------------=
   JOB DONE.
=------------------------------------------------------------------------------=
