  512

    1
0.0000000000e+00 0.0000000000e+00 0.0000000000e+00
0.0000000000e+00 0.0000000000e+00 0.0000000000e+00
     1      1      1
 1  1  1     0.0000000000e+00
 1  1  2     0.0000000000e+00
 1  1  3     0.0000000000e+00
 1  2  1     0.0000000000e+00
 1  2  2     0.0000000000e+00
 1  2  3     3.0901065999e+01
 1  3  1     0.0000000000e+00
 1  3  2     3.0901065999e+01
 1  3  3     0.0000000000e+00
 2  1  1     0.0000000000e+00
 2  1  2     0.0000000000e+00
 2  1  3     3.0901065999e+01
 2  2  1     0.0000000000e+00
 2  2  2     0.0000000000e+00
 2  2  3     0.0000000000e+00
 2  3  1     3.0901065999e+01
 2  3  2     0.0000000000e+00
 2  3  3     0.0000000000e+00
 3  1  1     0.0000000000e+00
 3  1  2     3.0901065999e+01
 3  1  3     0.0000000000e+00
 3  2  1     3.0901065999e+01
 3  2  2     0.0000000000e+00
 3  2  3     0.0000000000e+00
 3  3  1     0.0000000000e+00
 3  3  2     0.0000000000e+00
 3  3  3     0.0000000000e+00

    2
0.0000000000e+00 0.0000000000e+00 0.0000000000e+00
0.0000000000e+00 0.0000000000e+00 0.0000000000e+00
     1      1      2
 1  1  1    -3.3867857714e+00
 1  1  2    -6.1462493341e+00
 1  1  3    -6.1462493341e+00
 1  2  1    -5.8379738930e+00
 1  2  2    -5.8379738930e+00
 1  2  3    -7.9722735981e+00
 1  3  1    -5.8379738930e+00
 1  3  2    -7.9722735981e+00
 1  3  3    -5.8379738930e+00
 2  1  1    -5.8379738930e+00
 2  1  2    -5.8379738930e+00
 2  1  3    -7.9722735981e+00
 2  2  1    -6.1462493341e+00
 2  2  2    -3.3867857714e+00
 2  2  3    -6.1462493341e+00
 2  3  1    -7.9722735981e+00
 2  3  2    -5.8379738930e+00
 2  3  3    -5.8379738930e+00
 3  1  1    -5.8379738930e+00
 3  1  2    -7.9722735981e+00
 3  1  3    -5.8379738930e+00
 3  2  1    -7.9722735981e+00
 3  2  2    -5.8379738930e+00
 3  2  3    -5.8379738930e+00
 3  3  1    -6.1462493341e+00
 3  3  2    -6.1462493341e+00
 3  3  3    -3.3867857714e+00

    3
0.0000000000e+00 0.0000000000e+00 0.0000000000e+00
-2.7060867199e+00 0.0000000000e+00 2.7060867199e+00
     1      1      1
 1  1  1     0.0000000000e+00
 1  1  2     3.3882675519e-01
 1  1  3     0.0000000000e+00
 1  2  1     7.1662743280e-02
 1  2  2     0.0000000000e+00
 1  2  3     4.5560275639e-01
 1  3  1     0.0000000000e+00
 1  3  2    -3.5373802165e-01
 1  3  3     0.0000000000e+00
 2  1  1     7.1662743280e-02
 2  1  2     0.0000000000e+00
 2  1  3     4.5560275639e-01
 2  2  1     0.0000000000e+00
 2  2  2     1.5619452315e-01
 2  2  3     0.0000000000e+00
 2  3  1     4.5560275639e-01
 2  3  2     0.0000000000e+00
 2  3  3     7.1662743280e-02
 3  1  1     0.0000000000e+00
 3  1  2    -3.5373802165e-01
 3  1  3     0.0000000000e+00
 3  2  1     4.5560275639e-01
 3  2  2     0.0000000000e+00
 3  2  3     7.1662743280e-02
 3  3  1     0.0000000000e+00
 3  3  2     3.3882675519e-01
 3  3  3     0.0000000000e+00

    4
0.0000000000e+00 0.0000000000e+00 0.0000000000e+00
-2.7060867199e+00 0.0000000000e+00 2.7060867199e+00
     1      1      2
 1  1  1     7.0062563881e-02
 1  1  2    -1.6461007270e-01
 1  1  3     1.6461007270e-01
 1  2  1    -5.0251459920e-02
 1  2  2     5.0251459920e-02
 1  2  3     6.4277615412e-03
 1  3  1     5.0251459920e-02
 1  3  2     6.4277615412e-03
 1  3  3     5.0251459920e-02
 2  1  1    -5.0251459920e-02
 2  1  2     5.0251459920e-02
 2  1  3     6.4277615412e-03
 2  2  1     1.6461007270e-01
 2  2  2    -7.0062563881e-02
 2  2  3     1.6461007270e-01
 2  3  1     6.4277615412e-03
 2  3  2     5.0251459920e-02
 2  3  3    -5.0251459920e-02
 3  1  1     5.0251459920e-02
 3  1  2     6.4277615412e-03
 3  1  3     5.0251459920e-02
 3  2  1     6.4277615412e-03
 3  2  2     5.0251459920e-02
 3  2  3    -5.0251459920e-02
 3  3  1     1.6461007270e-01
 3  3  2    -1.6461007270e-01
 3  3  3     7.0062563881e-02

    5
0.0000000000e+00 0.0000000000e+00 0.0000000000e+00
0.0000000000e+00 2.7060867199e+00 2.7060867199e+00
     1      1      1
 1  1  1    -1.5619452315e-01
 1  1  2     0.0000000000e+00
 1  1  3     0.0000000000e+00
 1  2  1     0.0000000000e+00
 1  2  2    -7.1662743280e-02
 1  2  3     4.5560275639e-01
 1  3  1     0.0000000000e+00
 1  3  2     4.5560275639e-01
 1  3  3    -7.1662743280e-02
 2  1  1     0.0000000000e+00
 2  1  2    -7.1662743280e-02
 2  1  3     4.5560275639e-01
 2  2  1    -3.3882675519e-01
 2  2  2     0.0000000000e+00
 2  2  3     0.0000000000e+00
 2  3  1    -3.5373802165e-01
 2  3  2     0.0000000000e+00
 2  3  3     0.0000000000e+00
 3  1  1     0.0000000000e+00
 3  1  2     4.5560275639e-01
 3  1  3    -7.1662743280e-02
 3  2  1    -3.5373802165e-01
 3  2  2     0.0000000000e+00
 3  2  3     0.0000000000e+00
 3  3  1    -3.3882675519e-01
 3  3  2     0.0000000000e+00
 3  3  3     0.0000000000e+00

    6
0.0000000000e+00 0.0000000000e+00 0.0000000000e+00
0.0000000000e+00 -2.7060867199e+00 -2.7060867199e+00
     1      1      2
 1  1  1    -3.3867857714e+00
 1  1  2     6.1462493341e+00
 1  1  3     6.1462493341e+00
 1  2  1     5.8379738930e+00
 1  2  2    -5.8379738930e+00
 1  2  3    -7.9722735981e+00
 1  3  1     5.8379738930e+00
 1  3  2    -7.9722735981e+00
 1  3  3    -5.8379738930e+00
 2  1  1     5.8379738930e+00
 2  1  2    -5.8379738930e+00
 2  1  3    -7.9722735981e+00
 2  2  1    -6.1462493341e+00
 2  2  2     3.3867857714e+00
 2  2  3     6.1462493341e+00
 2  3  1    -7.9722735981e+00
 2  3  2     5.8379738930e+00
 2  3  3     5.8379738930e+00
 3  1  1     5.8379738930e+00
 3  1  2    -7.9722735981e+00
 3  1  3    -5.8379738930e+00
 3  2  1    -7.9722735981e+00
 3  2  2     5.8379738930e+00
 3  2  3     5.8379738930e+00
 3  3  1    -6.1462493341e+00
 3  3  2     6.1462493341e+00
 3  3  3     3.3867857714e+00

    7
0.0000000000e+00 0.0000000000e+00 0.0000000000e+00
2.7060867199e+00 2.7060867199e+00 0.0000000000e+00
     1      1      1
 1  1  1     0.0000000000e+00
 1  1  2     0.0000000000e+00
 1  1  3    -3.3882675519e-01
 1  2  1     0.0000000000e+00
 1  2  2     0.0000000000e+00
 1  2  3    -3.5373802165e-01
 1  3  1    -7.1662743280e-02
 1  3  2     4.5560275639e-01
 1  3  3     0.0000000000e+00
 2  1  1     0.0000000000e+00
 2  1  2     0.0000000000e+00
 2  1  3    -3.5373802165e-01
 2  2  1     0.0000000000e+00
 2  2  2     0.0000000000e+00
 2  2  3    -3.3882675519e-01
 2  3  1     4.5560275639e-01
 2  3  2    -7.1662743280e-02
 2  3  3     0.0000000000e+00
 3  1  1    -7.1662743280e-02
 3  1  2     4.5560275639e-01
 3  1  3     0.0000000000e+00
 3  2  1     4.5560275639e-01
 3  2  2    -7.1662743280e-02
 3  2  3     0.0000000000e+00
 3  3  1     0.0000000000e+00
 3  3  2     0.0000000000e+00
 3  3  3    -1.5619452315e-01

    8
0.0000000000e+00 0.0000000000e+00 0.0000000000e+00
-2.7060867199e+00 -2.7060867199e+00 0.0000000000e+00
     1      1      2
 1  1  1     3.3867857714e+00
 1  1  2     6.1462493341e+00
 1  1  3    -6.1462493341e+00
 1  2  1     5.8379738930e+00
 1  2  2     5.8379738930e+00
 1  2  3    -7.9722735981e+00
 1  3  1    -5.8379738930e+00
 1  3  2    -7.9722735981e+00
 1  3  3     5.8379738930e+00
 2  1  1     5.8379738930e+00
 2  1  2     5.8379738930e+00
 2  1  3    -7.9722735981e+00
 2  2  1     6.1462493341e+00
 2  2  2     3.3867857714e+00
 2  2  3    -6.1462493341e+00
 2  3  1    -7.9722735981e+00
 2  3  2    -5.8379738930e+00
 2  3  3     5.8379738930e+00
 3  1  1    -5.8379738930e+00
 3  1  2    -7.9722735981e+00
 3  1  3     5.8379738930e+00
 3  2  1    -7.9722735981e+00
 3  2  2    -5.8379738930e+00
 3  2  3     5.8379738930e+00
 3  3  1     6.1462493341e+00
 3  3  2     6.1462493341e+00
 3  3  3    -3.3867857714e+00

    9
0.0000000000e+00 0.0000000000e+00 0.0000000000e+00
-2.7060867199e+00 2.7060867199e+00 0.0000000000e+00
     1      1      1
 1  1  1     0.0000000000e+00
 1  1  2     0.0000000000e+00
 1  1  3     3.3882675519e-01
 1  2  1     0.0000000000e+00
 1  2  2     0.0000000000e+00
 1  2  3    -3.5373802165e-01
 1  3  1     7.1662743280e-02
 1  3  2     4.5560275639e-01
 1  3  3     0.0000000000e+00
 2  1  1     0.0000000000e+00
 2  1  2     0.0000000000e+00
 2  1  3    -3.5373802165e-01
 2  2  1     0.0000000000e+00
 2  2  2     0.0000000000e+00
 2  2  3     3.3882675519e-01
 2  3  1     4.5560275639e-01
 2  3  2     7.1662743280e-02
 2  3  3     0.0000000000e+00
 3  1  1     7.1662743280e-02
 3  1  2     4.5560275639e-01
 3  1  3     0.0000000000e+00
 3  2  1     4.5560275639e-01
 3  2  2     7.1662743280e-02
 3  2  3     0.0000000000e+00
 3  3  1     0.0000000000e+00
 3  3  2     0.0000000000e+00
 3  3  3     1.5619452315e-01

   10
0.0000000000e+00 0.0000000000e+00 0.0000000000e+00
-2.7060867199e+00 -2.7060867199e+00 -5.4121734399e+00
     1      1      2
 1  1  1     7.0062563881e-02
 1  1  2     1.6461007270e-01
 1  1  3    -1.6461007270e-01
 1  2  1     5.0251459920e-02
 1  2  2     5.0251459920e-02
 1  2  3     6.4277615412e-03
 1  3  1    -5.0251459920e-02
 1  3  2     6.4277615412e-03
 1  3  3     5.0251459920e-02
 2  1  1     5.0251459920e-02
 2  1  2     5.0251459920e-02
 2  1  3     6.4277615412e-03
 2  2  1     1.6461007270e-01
 2  2  2     7.0062563881e-02
 2  2  3    -1.6461007270e-01
 2  3  1     6.4277615412e-03
 2  3  2    -5.0251459920e-02
 2  3  3     5.0251459920e-02
 3  1  1    -5.0251459920e-02
 3  1  2     6.4277615412e-03
 3  1  3     5.0251459920e-02
 3  2  1     6.4277615412e-03
 3  2  2    -5.0251459920e-02
 3  2  3     5.0251459920e-02
 3  3  1     1.6461007270e-01
 3  3  2     1.6461007270e-01
 3  3  3    -7.0062563881e-02

   11
0.0000000000e+00 0.0000000000e+00 0.0000000000e+00
0.0000000000e+00 2.7060867199e+00 -2.7060867199e+00
     1      1      1
 1  1  1     1.5619452315e-01
 1  1  2     0.0000000000e+00
 1  1  3     0.0000000000e+00
 1  2  1     0.0000000000e+00
 1  2  2     7.1662743280e-02
 1  2  3     4.5560275639e-01
 1  3  1     0.0000000000e+00
 1  3  2     4.5560275639e-01
 1  3  3     7.1662743280e-02
 2  1  1     0.0000000000e+00
 2  1  2     7.1662743280e-02
 2  1  3     4.5560275639e-01
 2  2  1     3.3882675519e-01
 2  2  2     0.0000000000e+00
 2  2  3     0.0000000000e+00
 2  3  1    -3.5373802165e-01
 2  3  2     0.0000000000e+00
 2  3  3     0.0000000000e+00
 3  1  1     0.0000000000e+00
 3  1  2     4.5560275639e-01
 3  1  3     7.1662743280e-02
 3  2  1    -3.5373802165e-01
 3  2  2     0.0000000000e+00
 3  2  3     0.0000000000e+00
 3  3  1     3.3882675519e-01
 3  3  2     0.0000000000e+00
 3  3  3     0.0000000000e+00

   12
0.0000000000e+00 0.0000000000e+00 0.0000000000e+00
-5.4121734399e+00 -2.7060867199e+00 -2.7060867199e+00
     1      1      2
 1  1  1    -7.0062563881e-02
 1  1  2     1.6461007270e-01
 1  1  3     1.6461007270e-01
 1  2  1     5.0251459920e-02
 1  2  2    -5.0251459920e-02
 1  2  3     6.4277615412e-03
 1  3  1     5.0251459920e-02
 1  3  2     6.4277615412e-03
 1  3  3    -5.0251459920e-02
 2  1  1     5.0251459920e-02
 2  1  2    -5.0251459920e-02
 2  1  3     6.4277615412e-03
 2  2  1    -1.6461007270e-01
 2  2  2     7.0062563881e-02
 2  2  3     1.6461007270e-01
 2  3  1     6.4277615412e-03
 2  3  2     5.0251459920e-02
 2  3  3     5.0251459920e-02
 3  1  1     5.0251459920e-02
 3  1  2     6.4277615412e-03
 3  1  3    -5.0251459920e-02
 3  2  1     6.4277615412e-03
 3  2  2     5.0251459920e-02
 3  2  3     5.0251459920e-02
 3  3  1    -1.6461007270e-01
 3  3  2     1.6461007270e-01
 3  3  3     7.0062563881e-02

   13
0.0000000000e+00 0.0000000000e+00 0.0000000000e+00
-2.7060867199e+00 0.0000000000e+00 -2.7060867199e+00
     1      1      1
 1  1  1     0.0000000000e+00
 1  1  2    -3.3882675519e-01
 1  1  3     0.0000000000e+00
 1  2  1    -7.1662743280e-02
 1  2  2     0.0000000000e+00
 1  2  3     4.5560275639e-01
 1  3  1     0.0000000000e+00
 1  3  2    -3.5373802165e-01
 1  3  3     0.0000000000e+00
 2  1  1    -7.1662743280e-02
 2  1  2     0.0000000000e+00
 2  1  3     4.5560275639e-01
 2  2  1     0.0000000000e+00
 2  2  2    -1.5619452315e-01
 2  2  3     0.0000000000e+00
 2  3  1     4.5560275639e-01
 2  3  2     0.0000000000e+00
 2  3  3    -7.1662743280e-02
 3  1  1     0.0000000000e+00
 3  1  2    -3.5373802165e-01
 3  1  3     0.0000000000e+00
 3  2  1     4.5560275639e-01
 3  2  2     0.0000000000e+00
 3  2  3    -7.1662743280e-02
 3  3  1     0.0000000000e+00
 3  3  2    -3.3882675519e-01
 3  3  3     0.0000000000e+00

   14
0.0000000000e+00 0.0000000000e+00 0.0000000000e+00
-2.7060867199e+00 0.0000000000e+00 -2.7060867199e+00
     1      1      2
 1  1  1     3.3867857714e+00
 1  1  2    -6.1462493341e+00
 1  1  3     6.1462493341e+00
 1  2  1    -5.8379738930e+00
 1  2  2     5.8379738930e+00
 1  2  3    -7.9722735981e+00
 1  3  1     5.8379738930e+00
 1  3  2    -7.9722735981e+00
 1  3  3     5.8379738930e+00
 2  1  1    -5.8379738930e+00
 2  1  2     5.8379738930e+00
 2  1  3    -7.9722735981e+00
 2  2  1     6.1462493341e+00
 2  2  2    -3.3867857714e+00
 2  2  3     6.1462493341e+00
 2  3  1    -7.9722735981e+00
 2  3  2     5.8379738930e+00
 2  3  3    -5.8379738930e+00
 3  1  1     5.8379738930e+00
 3  1  2    -7.9722735981e+00
 3  1  3     5.8379738930e+00
 3  2  1    -7.9722735981e+00
 3  2  2     5.8379738930e+00
 3  2  3    -5.8379738930e+00
 3  3  1     6.1462493341e+00
 3  3  2    -6.1462493341e+00
 3  3  3     3.3867857714e+00

   15
0.0000000000e+00 0.0000000000e+00 0.0000000000e+00
0.0000000000e+00 0.0000000000e+00 -5.4121734399e+00
     1      1      1
 1  1  1     0.0000000000e+00
 1  1  2     0.0000000000e+00
 1  1  3     0.0000000000e+00
 1  2  1     0.0000000000e+00
 1  2  2     0.0000000000e+00
 1  2  3    -1.5261763563e-01
 1  3  1     0.0000000000e+00
 1  3  2    -1.5261763563e-01
 1  3  3     0.0000000000e+00
 2  1  1     0.0000000000e+00
 2  1  2     0.0000000000e+00
 2  1  3    -1.5261763563e-01
 2  2  1     0.0000000000e+00
 2  2  2     0.0000000000e+00
 2  2  3     0.0000000000e+00
 2  3  1    -1.5261763563e-01
 2  3  2     0.0000000000e+00
 2  3  3     0.0000000000e+00
 3  1  1     0.0000000000e+00
 3  1  2    -1.5261763563e-01
 3  1  3     0.0000000000e+00
 3  2  1    -1.5261763563e-01
 3  2  2     0.0000000000e+00
 3  2  3     0.0000000000e+00
 3  3  1     0.0000000000e+00
 3  3  2     0.0000000000e+00
 3  3  3     0.0000000000e+00

   16
0.0000000000e+00 0.0000000000e+00 0.0000000000e+00
-5.4121734399e+00 0.0000000000e+00 0.0000000000e+00
     1      1      2
 1  1  1    -7.0062563881e-02
 1  1  2    -1.6461007270e-01
 1  1  3    -1.6461007270e-01
 1  2  1    -5.0251459920e-02
 1  2  2    -5.0251459920e-02
 1  2  3     6.4277615412e-03
 1  3  1    -5.0251459920e-02
 1  3  2     6.4277615412e-03
 1  3  3    -5.0251459920e-02
 2  1  1    -5.0251459920e-02
 2  1  2    -5.0251459920e-02
 2  1  3     6.4277615412e-03
 2  2  1    -1.6461007270e-01
 2  2  2    -7.0062563881e-02
 2  2  3    -1.6461007270e-01
 2  3  1     6.4277615412e-03
 2  3  2    -5.0251459920e-02
 2  3  3    -5.0251459920e-02
 3  1  1    -5.0251459920e-02
 3  1  2     6.4277615412e-03
 3  1  3    -5.0251459920e-02
 3  2  1     6.4277615412e-03
 3  2  2    -5.0251459920e-02
 3  2  3    -5.0251459920e-02
 3  3  1    -1.6461007270e-01
 3  3  2    -1.6461007270e-01
 3  3  3    -7.0062563881e-02

   17
0.0000000000e+00 0.0000000000e+00 0.0000000000e+00
0.0000000000e+00 0.0000000000e+00 0.0000000000e+00
     1      2      1
 1  1  1    -3.3867857714e+00
 1  1  2    -5.8379738930e+00
 1  1  3    -5.8379738930e+00
 1  2  1    -6.1462493341e+00
 1  2  2    -5.8379738930e+00
 1  2  3    -7.9722735981e+00
 1  3  1    -6.1462493341e+00
 1  3  2    -7.9722735981e+00
 1  3  3    -5.8379738930e+00
 2  1  1    -5.8379738930e+00
 2  1  2    -6.1462493341e+00
 2  1  3    -7.9722735981e+00
 2  2  1    -5.8379738930e+00
 2  2  2    -3.3867857714e+00
 2  2  3    -5.8379738930e+00
 2  3  1    -7.9722735981e+00
 2  3  2    -6.1462493341e+00
 2  3  3    -5.8379738930e+00
 3  1  1    -5.8379738930e+00
 3  1  2    -7.9722735981e+00
 3  1  3    -6.1462493341e+00
 3  2  1    -7.9722735981e+00
 3  2  2    -5.8379738930e+00
 3  2  3    -6.1462493341e+00
 3  3  1    -5.8379738930e+00
 3  3  2    -5.8379738930e+00
 3  3  3    -3.3867857714e+00

   18
0.0000000000e+00 0.0000000000e+00 0.0000000000e+00
0.0000000000e+00 0.0000000000e+00 0.0000000000e+00
     1      2      2
 1  1  1     3.3867857714e+00
 1  1  2     5.8379738930e+00
 1  1  3     5.8379738930e+00
 1  2  1     5.8379738930e+00
 1  2  2     6.1462493341e+00
 1  2  3     7.9722735981e+00
 1  3  1     5.8379738930e+00
 1  3  2     7.9722735981e+00
 1  3  3     6.1462493341e+00
 2  1  1     6.1462493341e+00
 2  1  2     5.8379738930e+00
 2  1  3     7.9722735981e+00
 2  2  1     5.8379738930e+00
 2  2  2     3.3867857714e+00
 2  2  3     5.8379738930e+00
 2  3  1     7.9722735981e+00
 2  3  2     5.8379738930e+00
 2  3  3     6.1462493341e+00
 3  1  1     6.1462493341e+00
 3  1  2     7.9722735981e+00
 3  1  3     5.8379738930e+00
 3  2  1     7.9722735981e+00
 3  2  2     6.1462493341e+00
 3  2  3     5.8379738930e+00
 3  3  1     5.8379738930e+00
 3  3  2     5.8379738930e+00
 3  3  3     3.3867857714e+00

   19
0.0000000000e+00 0.0000000000e+00 0.0000000000e+00
-2.7060867199e+00 0.0000000000e+00 2.7060867199e+00
     1      2      1
 1  1  1    -2.1854377724e-02
 1  1  2    -1.0554337275e-01
 1  1  3     6.9057734163e-02
 1  2  1    -3.9225615875e-02
 1  2  2    -5.4635687947e-02
 1  2  3    -1.7768303491e-01
 1  3  1     1.4414276035e-01
 1  3  2    -2.7029572117e-02
 1  3  3    -9.0630684540e-02
 2  1  1    -6.7814588917e-02
 2  1  2    -3.0658461228e-02
 2  1  3     5.1302381353e-02
 2  2  1     4.9621962302e-02
 2  2  2    -7.4561994589e-02
 2  2  3     4.9621962302e-02
 2  3  1     5.1302381353e-02
 2  3  2    -3.0658461228e-02
 2  3  3    -6.7814588917e-02
 3  1  1    -9.0630684540e-02
 3  1  2    -2.7029572117e-02
 3  1  3     1.4414276035e-01
 3  2  1    -1.7768303491e-01
 3  2  2    -5.4635687947e-02
 3  2  3    -3.9225615875e-02
 3  3  1     6.9057734163e-02
 3  3  2    -1.0554337275e-01
 3  3  3    -2.1854377724e-02

   20
0.0000000000e+00 0.0000000000e+00 0.0000000000e+00
-2.7060867199e+00 0.0000000000e+00 2.7060867199e+00
     1      2      2
 1  1  1     2.1854377724e-02
 1  1  2     1.0554337275e-01
 1  1  3    -6.9057734163e-02
 1  2  1     6.7814588917e-02
 1  2  2     3.0658461228e-02
 1  2  3    -5.1302381353e-02
 1  3  1     9.0630684540e-02
 1  3  2     2.7029572117e-02
 1  3  3    -1.4414276035e-01
 2  1  1     3.9225615875e-02
 2  1  2     5.4635687947e-02
 2  1  3     1.7768303491e-01
 2  2  1    -4.9621962302e-02
 2  2  2     7.4561994589e-02
 2  2  3    -4.9621962302e-02
 2  3  1     1.7768303491e-01
 2  3  2     5.4635687947e-02
 2  3  3     3.9225615875e-02
 3  1  1    -1.4414276035e-01
 3  1  2     2.7029572117e-02
 3  1  3     9.0630684540e-02
 3  2  1    -5.1302381353e-02
 3  2  2     3.0658461228e-02
 3  2  3     6.7814588917e-02
 3  3  1    -6.9057734163e-02
 3  3  2     1.0554337275e-01
 3  3  3     2.1854377724e-02

   21
0.0000000000e+00 0.0000000000e+00 0.0000000000e+00
0.0000000000e+00 2.7060867199e+00 2.7060867199e+00
     1      2      1
 1  1  1     3.2138790771e-02
 1  1  2     8.0989189418e-02
 1  1  3     8.0989189418e-02
 1  2  1     0.0000000000e+00
 1  2  2     1.3552499420e-01
 1  2  3    -1.0851414290e-01
 1  3  1     0.0000000000e+00
 1  3  2    -1.0851414290e-01
 1  3  3     1.3552499420e-01
 2  1  1    -8.0989189418e-02
 2  1  2    -4.4941081703e-02
 2  1  3    -5.0308782418e-01
 2  2  1     1.3552499420e-01
 2  2  2     0.0000000000e+00
 2  2  3     1.7547515311e-01
 2  3  1    -1.0851414290e-01
 2  3  2     0.0000000000e+00
 2  3  3    -1.7547515311e-01
 3  1  1    -8.0989189418e-02
 3  1  2    -5.0308782418e-01
 3  1  3    -4.4941081703e-02
 3  2  1    -1.0851414290e-01
 3  2  2    -1.7547515311e-01
 3  2  3     0.0000000000e+00
 3  3  1     1.3552499420e-01
 3  3  2     1.7547515311e-01
 3  3  3     0.0000000000e+00

   22
0.0000000000e+00 0.0000000000e+00 0.0000000000e+00
0.0000000000e+00 -2.7060867199e+00 -2.7060867199e+00
     1      2      2
 1  1  1    -3.2138790771e-02
 1  1  2    -8.0989189418e-02
 1  1  3    -8.0989189418e-02
 1  2  1     8.0989189418e-02
 1  2  2     4.4941081703e-02
 1  2  3     5.0308782418e-01
 1  3  1     8.0989189418e-02
 1  3  2     5.0308782418e-01
 1  3  3     4.4941081703e-02
 2  1  1     0.0000000000e+00
 2  1  2    -1.3552499420e-01
 2  1  3     1.0851414290e-01
 2  2  1    -1.3552499420e-01
 2  2  2     0.0000000000e+00
 2  2  3    -1.7547515311e-01
 2  3  1     1.0851414290e-01
 2  3  2     1.7547515311e-01
 2  3  3     0.0000000000e+00
 3  1  1     0.0000000000e+00
 3  1  2     1.0851414290e-01
 3  1  3    -1.3552499420e-01
 3  2  1     1.0851414290e-01
 3  2  2     0.0000000000e+00
 3  2  3     1.7547515311e-01
 3  3  1    -1.3552499420e-01
 3  3  2    -1.7547515311e-01
 3  3  3     0.0000000000e+00

   23
0.0000000000e+00 0.0000000000e+00 0.0000000000e+00
2.7060867199e+00 2.7060867199e+00 0.0000000000e+00
     1      2      1
 1  1  1     0.0000000000e+00
 1  1  2     1.7547515311e-01
 1  1  3     1.3552499420e-01
 1  2  1     0.0000000000e+00
 1  2  2    -1.7547515311e-01
 1  2  3    -1.0851414290e-01
 1  3  1    -4.4941081703e-02
 1  3  2    -5.0308782418e-01
 1  3  3    -8.0989189418e-02
 2  1  1    -1.7547515311e-01
 2  1  2     0.0000000000e+00
 2  1  3    -1.0851414290e-01
 2  2  1     1.7547515311e-01
 2  2  2     0.0000000000e+00
 2  2  3     1.3552499420e-01
 2  3  1    -5.0308782418e-01
 2  3  2    -4.4941081703e-02
 2  3  3    -8.0989189418e-02
 3  1  1     1.3552499420e-01
 3  1  2    -1.0851414290e-01
 3  1  3     0.0000000000e+00
 3  2  1    -1.0851414290e-01
 3  2  2     1.3552499420e-01
 3  2  3     0.0000000000e+00
 3  3  1     8.0989189418e-02
 3  3  2     8.0989189418e-02
 3  3  3     3.2138790771e-02

   24
0.0000000000e+00 0.0000000000e+00 0.0000000000e+00
-2.7060867199e+00 -2.7060867199e+00 0.0000000000e+00
     1      2      2
 1  1  1     0.0000000000e+00
 1  1  2    -1.7547515311e-01
 1  1  3    -1.3552499420e-01
 1  2  1     1.7547515311e-01
 1  2  2     0.0000000000e+00
 1  2  3     1.0851414290e-01
 1  3  1    -1.3552499420e-01
 1  3  2     1.0851414290e-01
 1  3  3     0.0000000000e+00
 2  1  1     0.0000000000e+00
 2  1  2     1.7547515311e-01
 2  1  3     1.0851414290e-01
 2  2  1    -1.7547515311e-01
 2  2  2     0.0000000000e+00
 2  2  3    -1.3552499420e-01
 2  3  1     1.0851414290e-01
 2  3  2    -1.3552499420e-01
 2  3  3     0.0000000000e+00
 3  1  1     4.4941081703e-02
 3  1  2     5.0308782418e-01
 3  1  3     8.0989189418e-02
 3  2  1     5.0308782418e-01
 3  2  2     4.4941081703e-02
 3  2  3     8.0989189418e-02
 3  3  1    -8.0989189418e-02
 3  3  2    -8.0989189418e-02
 3  3  3    -3.2138790771e-02

   25
0.0000000000e+00 0.0000000000e+00 0.0000000000e+00
-2.7060867199e+00 2.7060867199e+00 0.0000000000e+00
     1      2      1
 1  1  1    -2.1854377724e-02
 1  1  2     6.9057734163e-02
 1  1  3    -1.0554337275e-01
 1  2  1     1.4414276035e-01
 1  2  2    -9.0630684540e-02
 1  2  3    -2.7029572117e-02
 1  3  1    -3.9225615875e-02
 1  3  2    -1.7768303491e-01
 1  3  3    -5.4635687947e-02
 2  1  1    -9.0630684540e-02
 2  1  2     1.4414276035e-01
 2  1  3    -2.7029572117e-02
 2  2  1     6.9057734163e-02
 2  2  2    -2.1854377724e-02
 2  2  3    -1.0554337275e-01
 2  3  1    -1.7768303491e-01
 2  3  2    -3.9225615875e-02
 2  3  3    -5.4635687947e-02
 3  1  1    -6.7814588917e-02
 3  1  2     5.1302381353e-02
 3  1  3    -3.0658461228e-02
 3  2  1     5.1302381353e-02
 3  2  2    -6.7814588917e-02
 3  2  3    -3.0658461228e-02
 3  3  1     4.9621962302e-02
 3  3  2     4.9621962302e-02
 3  3  3    -7.4561994589e-02

   26
0.0000000000e+00 0.0000000000e+00 0.0000000000e+00
2.7060867199e+00 -2.7060867199e+00 0.0000000000e+00
     1      2      2
 1  1  1     2.1854377724e-02
 1  1  2    -6.9057734163e-02
 1  1  3     1.0554337275e-01
 1  2  1     9.0630684540e-02
 1  2  2    -1.4414276035e-01
 1  2  3     2.7029572117e-02
 1  3  1     6.7814588917e-02
 1  3  2    -5.1302381353e-02
 1  3  3     3.0658461228e-02
 2  1  1    -1.4414276035e-01
 2  1  2     9.0630684540e-02
 2  1  3     2.7029572117e-02
 2  2  1    -6.9057734163e-02
 2  2  2     2.1854377724e-02
 2  2  3     1.0554337275e-01
 2  3  1    -5.1302381353e-02
 2  3  2     6.7814588917e-02
 2  3  3     3.0658461228e-02
 3  1  1     3.9225615875e-02
 3  1  2     1.7768303491e-01
 3  1  3     5.4635687947e-02
 3  2  1     1.7768303491e-01
 3  2  2     3.9225615875e-02
 3  2  3     5.4635687947e-02
 3  3  1    -4.9621962302e-02
 3  3  2    -4.9621962302e-02
 3  3  3     7.4561994589e-02

   27
0.0000000000e+00 0.0000000000e+00 0.0000000000e+00
0.0000000000e+00 -2.7060867199e+00 2.7060867199e+00
     1      2      1
 1  1  1    -7.4561994589e-02
 1  1  2     4.9621962302e-02
 1  1  3     4.9621962302e-02
 1  2  1    -3.0658461228e-02
 1  2  2    -6.7814588917e-02
 1  2  3     5.1302381353e-02
 1  3  1    -3.0658461228e-02
 1  3  2     5.1302381353e-02
 1  3  3    -6.7814588917e-02
 2  1  1    -5.4635687947e-02
 2  1  2    -3.9225615875e-02
 2  1  3    -1.7768303491e-01
 2  2  1    -1.0554337275e-01
 2  2  2    -2.1854377724e-02
 2  2  3     6.9057734163e-02
 2  3  1    -2.7029572117e-02
 2  3  2     1.4414276035e-01
 2  3  3    -9.0630684540e-02
 3  1  1    -5.4635687947e-02
 3  1  2    -1.7768303491e-01
 3  1  3    -3.9225615875e-02
 3  2  1    -2.7029572117e-02
 3  2  2    -9.0630684540e-02
 3  2  3     1.4414276035e-01
 3  3  1    -1.0554337275e-01
 3  3  2     6.9057734163e-02
 3  3  3    -2.1854377724e-02

   28
0.0000000000e+00 0.0000000000e+00 0.0000000000e+00
0.0000000000e+00 -2.7060867199e+00 2.7060867199e+00
     1      2      2
 1  1  1     7.4561994589e-02
 1  1  2    -4.9621962302e-02
 1  1  3    -4.9621962302e-02
 1  2  1     5.4635687947e-02
 1  2  2     3.9225615875e-02
 1  2  3     1.7768303491e-01
 1  3  1     5.4635687947e-02
 1  3  2     1.7768303491e-01
 1  3  3     3.9225615875e-02
 2  1  1     3.0658461228e-02
 2  1  2     6.7814588917e-02
 2  1  3    -5.1302381353e-02
 2  2  1     1.0554337275e-01
 2  2  2     2.1854377724e-02
 2  2  3    -6.9057734163e-02
 2  3  1     2.7029572117e-02
 2  3  2     9.0630684540e-02
 2  3  3    -1.4414276035e-01
 3  1  1     3.0658461228e-02
 3  1  2    -5.1302381353e-02
 3  1  3     6.7814588917e-02
 3  2  1     2.7029572117e-02
 3  2  2    -1.4414276035e-01
 3  2  3     9.0630684540e-02
 3  3  1     1.0554337275e-01
 3  3  2    -6.9057734163e-02
 3  3  3     2.1854377724e-02

   29
0.0000000000e+00 0.0000000000e+00 0.0000000000e+00
2.7060867199e+00 0.0000000000e+00 2.7060867199e+00
     1      2      1
 1  1  1     0.0000000000e+00
 1  1  2     1.3552499420e-01
 1  1  3     1.7547515311e-01
 1  2  1    -4.4941081703e-02
 1  2  2    -8.0989189418e-02
 1  2  3    -5.0308782418e-01
 1  3  1     0.0000000000e+00
 1  3  2    -1.0851414290e-01
 1  3  3    -1.7547515311e-01
 2  1  1     1.3552499420e-01
 2  1  2     0.0000000000e+00
 2  1  3    -1.0851414290e-01
 2  2  1     8.0989189418e-02
 2  2  2     3.2138790771e-02
 2  2  3     8.0989189418e-02
 2  3  1    -1.0851414290e-01
 2  3  2     0.0000000000e+00
 2  3  3     1.3552499420e-01
 3  1  1    -1.7547515311e-01
 3  1  2    -1.0851414290e-01
 3  1  3     0.0000000000e+00
 3  2  1    -5.0308782418e-01
 3  2  2    -8.0989189418e-02
 3  2  3    -4.4941081703e-02
 3  3  1     1.7547515311e-01
 3  3  2     1.3552499420e-01
 3  3  3     0.0000000000e+00

   30
0.0000000000e+00 0.0000000000e+00 0.0000000000e+00
-2.7060867199e+00 0.0000000000e+00 -2.7060867199e+00
     1      2      2
 1  1  1     0.0000000000e+00
 1  1  2    -1.3552499420e-01
 1  1  3    -1.7547515311e-01
 1  2  1    -1.3552499420e-01
 1  2  2     0.0000000000e+00
 1  2  3     1.0851414290e-01
 1  3  1     1.7547515311e-01
 1  3  2     1.0851414290e-01
 1  3  3     0.0000000000e+00
 2  1  1     4.4941081703e-02
 2  1  2     8.0989189418e-02
 2  1  3     5.0308782418e-01
 2  2  1    -8.0989189418e-02
 2  2  2    -3.2138790771e-02
 2  2  3    -8.0989189418e-02
 2  3  1     5.0308782418e-01
 2  3  2     8.0989189418e-02
 2  3  3     4.4941081703e-02
 3  1  1     0.0000000000e+00
 3  1  2     1.0851414290e-01
 3  1  3     1.7547515311e-01
 3  2  1     1.0851414290e-01
 3  2  2     0.0000000000e+00
 3  2  3    -1.3552499420e-01
 3  3  1    -1.7547515311e-01
 3  3  2    -1.3552499420e-01
 3  3  3     0.0000000000e+00

   31
0.0000000000e+00 0.0000000000e+00 0.0000000000e+00
0.0000000000e+00 0.0000000000e+00 5.4121734399e+00
     1      2      1
 1  1  1    -1.0220135465e-01
 1  1  2    -3.0658379476e-02
 1  1  3    -3.0658379476e-02
 1  2  1    -4.6063601853e-02
 1  2  2     8.9988683705e-03
 1  2  3     7.5413721244e-02
 1  3  1    -4.6063601853e-02
 1  3  2     7.5413721244e-02
 1  3  3     8.9988683705e-03
 2  1  1     8.9988683705e-03
 2  1  2    -4.6063601853e-02
 2  1  3     7.5413721244e-02
 2  2  1    -3.0658379476e-02
 2  2  2    -1.0220135465e-01
 2  2  3    -3.0658379476e-02
 2  3  1     7.5413721244e-02
 2  3  2    -4.6063601853e-02
 2  3  3     8.9988683705e-03
 3  1  1     8.9988683705e-03
 3  1  2     7.5413721244e-02
 3  1  3    -4.6063601853e-02
 3  2  1     7.5413721244e-02
 3  2  2     8.9988683705e-03
 3  2  3    -4.6063601853e-02
 3  3  1    -3.0658379476e-02
 3  3  2    -3.0658379476e-02
 3  3  3    -1.0220135465e-01

   32
0.0000000000e+00 0.0000000000e+00 0.0000000000e+00
0.0000000000e+00 -5.4121734399e+00 0.0000000000e+00
     1      2      2
 1  1  1     1.0220135465e-01
 1  1  2     3.0658379476e-02
 1  1  3     3.0658379476e-02
 1  2  1    -8.9988683705e-03
 1  2  2     4.6063601853e-02
 1  2  3    -7.5413721244e-02
 1  3  1    -8.9988683705e-03
 1  3  2    -7.5413721244e-02
 1  3  3     4.6063601853e-02
 2  1  1     4.6063601853e-02
 2  1  2    -8.9988683705e-03
 2  1  3    -7.5413721244e-02
 2  2  1     3.0658379476e-02
 2  2  2     1.0220135465e-01
 2  2  3     3.0658379476e-02
 2  3  1    -7.5413721244e-02
 2  3  2    -8.9988683705e-03
 2  3  3     4.6063601853e-02
 3  1  1     4.6063601853e-02
 3  1  2    -7.5413721244e-02
 3  1  3    -8.9988683705e-03
 3  2  1    -7.5413721244e-02
 3  2  2     4.6063601853e-02