--------------------------------------------------------------------------
[[24825,1],0]: A high-performance Open MPI point-to-point messaging module
was unable to find any relevant network interfaces:

Module: OpenFabrics (openib)
  Host: H388X

Another transport will be used instead, although this may result in
lower performance.

NOTE: You can disable this warning by setting the MCA parameter
btl_base_warn_component_unused to 0.
--------------------------------------------------------------------------

     Program PHONON v.6.7GPU starts on 19Apr2021 at 10:54:58 

     This program is part of the open-source Quantum ESPRESSO suite
     for quantum simulation of materials; please cite
         "P. Giannozzi et al., J. Phys.:Condens. Matter 21 395502 (2009);
         "P. Giannozzi et al., J. Phys.:Condens. Matter 29 465901 (2017);
         "P. Giannozzi et al., J. Chem. Phys. 152 154105 (2020);
          URL http://www.quantum-espresso.org", 
     in publications or presentations arising from this work. More details at
     http://www.quantum-espresso.org/quote

     Parallel version (MPI), running on     4 processors

     MPI processes distributed on     1 nodes
     R & G space division:  proc/nbgrp/npool/nimage =       4
     Reading input from ph.in

     Reading xml data from directory:

     ./tmp/silicon.save/

     IMPORTANT: XC functional enforced from input :
     Exchange-correlation= PZ
                           (   1   1   0   0   0   0   0)
     Any further DFT definition will be discarded
     Please, verify this is what you really want


     Parallelization info
     --------------------
     sticks:   dense  smooth     PW     G-vecs:    dense   smooth      PW
     Min          87      87     27                 1027     1027     186
     Max          88      88     28                 1028     1028     189
     Sum         349     349    109                 4111     4111     749

     Using Slab Decomposition

     Reading collected, re-writing distributed wavefunctions


     Dynamical matrices for ( 4, 4, 4)  uniform grid of q-points
     (   8 q-points):
       N         xq(1)         xq(2)         xq(3) 
       1   0.000000000   0.000000000   0.000000000
       2  -0.250000000   0.250000000  -0.250000000
       3   0.500000000  -0.500000000   0.500000000
       4   0.000000000   0.500000000   0.000000000
       5   0.750000000  -0.250000000   0.750000000
       6   0.500000000   0.000000000   0.500000000
       7   0.000000000  -1.000000000   0.000000000
       8  -0.500000000  -1.000000000   0.000000000

     Calculation of q =    0.0000000   0.0000000   0.0000000

     Ph                                                                         

     bravais-lattice index     =            2
     lattice parameter (alat)  =      10.1000  a.u.
     unit-cell volume          =     257.5752 (a.u.)^3
     number of atoms/cell      =            2
     number of atomic types    =            1
     kinetic-energy cut-off    =      24.0000  Ry
     charge density cut-off    =      96.0000  Ry
     convergence threshold     =      1.0E-16
     beta                      =       0.7000
     number of iterations used =            4
     Exchange-correlation= PZ
                           (   1   1   0   0   0   0   0)


     celldm(1)=   10.10000  celldm(2)=    0.00000  celldm(3)=    0.00000
     celldm(4)=    0.00000  celldm(5)=    0.00000  celldm(6)=    0.00000

     crystal axes: (cart. coord. in units of alat)
               a(1) = ( -0.5000  0.0000  0.5000 )  
               a(2) = (  0.0000  0.5000  0.5000 )  
               a(3) = ( -0.5000  0.5000  0.0000 )  

     reciprocal axes: (cart. coord. in units 2 pi/alat)
               b(1) = ( -1.0000 -1.0000  1.0000 )  
               b(2) = (  1.0000  1.0000  1.0000 )  
               b(3) = ( -1.0000  1.0000 -1.0000 )  


     Atoms inside the unit cell: 

     Cartesian axes

     site n.  atom      mass           positions (alat units)
        1     Si  28.0860   tau(    1) = (    0.00000    0.00000    0.00000  )
        2     Si  28.0860   tau(    2) = (    0.25000    0.25000    0.25000  )

     Computing dynamical matrix for 
                    q = (   0.0000000   0.0000000   0.0000000 )

     49 Sym.Ops. (with q -> -q+G )


     G cutoff =  248.0586  (   1028 G-vectors)     FFT grid: ( 24, 24, 24)
     number of k points=     8

     PseudoPot. # 1 for Si read from file:
     ../Si.pz-rrkj.UPF
     MD5 check sum: 884b380b739b48e9cd334294cddc9a8d
     Pseudo is Norm-conserving, Zval =  4.0
     Generated using "atomic" code by A. Dal Corso (espresso distribution)
     Using radial grid of 1141 points,  2 beta functions with: 
                l(1) =   0
                l(2) =   1

     Mode symmetry, O_h (m-3m)  point group:


     Electric field:
     Dielectric constant
     Born effective charges in two ways 


     Atomic displacements:
     There are    2 irreducible representations

     Representation     1      3 modes -  To be done

     Representation     2      3 modes -  To be done



     Alpha used in Ewald sum =   1.0000
     PHONON       :      0.19s CPU      0.36s WALL


     Electric Fields Calculation

      iter #   1 total cpu time :     1.9 secs   av.it.:   5.7
      thresh= 1.000E-02 alpha_mix =  0.700 |ddv_scf|^2 =  6.075E-07

      iter #   2 total cpu time :     2.3 secs   av.it.:   9.0
      thresh= 7.794E-05 alpha_mix =  0.700 |ddv_scf|^2 =  2.635E-08

      iter #   3 total cpu time :     2.8 secs   av.it.:   9.1
      thresh= 1.623E-05 alpha_mix =  0.700 |ddv_scf|^2 =  4.078E-10

      iter #   4 total cpu time :     3.2 secs   av.it.:   9.2
      thresh= 2.019E-06 alpha_mix =  0.700 |ddv_scf|^2 =  1.935E-12

      iter #   5 total cpu time :     3.6 secs   av.it.:   8.9
      thresh= 1.391E-07 alpha_mix =  0.700 |ddv_scf|^2 =  1.093E-15

      iter #   6 total cpu time :     4.1 secs   av.it.:   9.1
      thresh= 3.306E-09 alpha_mix =  0.700 |ddv_scf|^2 =  1.171E-17

     End of electric fields calculation

          Dielectric constant in cartesian axis 

          (      24.148788413       0.000000000       0.000000000 )
          (      -0.000000000      24.148788413      -0.000000000 )
          (       0.000000000       0.000000000      24.148788413 )

          Effective charges (d Force / dE) in cartesian axis

           atom      1   Si 
      Ex  (       -1.22876       -0.00000       -0.00000 )
      Ey  (       -0.00000       -1.22876        0.00000 )
      Ez  (       -0.00000        0.00000       -1.22876 )
           atom      2   Si 
      Ex  (       -1.22876        0.00000        0.00000 )
      Ey  (        0.00000       -1.22876       -0.00000 )
      Ez  (        0.00000       -0.00000       -1.22876 )


     Representation #   1 modes #   1   2   3

     Self-consistent Calculation
[H388X:27888] 3 more processes have sent help message help-mpi-btl-base.txt / btl:no-nics
[H388X:27888] Set MCA parameter "orte_base_help_aggregate" to 0 to see all help / error messages

      iter #   1 total cpu time :     4.5 secs   av.it.:   4.9
      thresh= 1.000E-02 alpha_mix =  0.700 |ddv_scf|^2 =  1.103E-07

      iter #   2 total cpu time :     4.9 secs   av.it.:   8.8
      thresh= 3.321E-05 alpha_mix =  0.700 |ddv_scf|^2 =  1.848E-09

      iter #   3 total cpu time :     5.4 secs   av.it.:   8.9
      thresh= 4.299E-06 alpha_mix =  0.700 |ddv_scf|^2 =  2.684E-11

      iter #   4 total cpu time :     5.8 secs   av.it.:   8.2
      thresh= 5.181E-07 alpha_mix =  0.700 |ddv_scf|^2 =  1.865E-14

      iter #   5 total cpu time :     6.2 secs   av.it.:   9.1
      thresh= 1.366E-08 alpha_mix =  0.700 |ddv_scf|^2 =  1.443E-16

      iter #   6 total cpu time :     6.7 secs   av.it.:   8.8
      thresh= 1.201E-09 alpha_mix =  0.700 |ddv_scf|^2 =  1.965E-18

     End of self-consistent calculation

     Convergence has been achieved 


     Representation #   2 modes #   4   5   6

     Self-consistent Calculation

      iter #   1 total cpu time :     7.1 secs   av.it.:   5.2
      thresh= 1.000E-02 alpha_mix =  0.700 |ddv_scf|^2 =  8.095E-08

      iter #   2 total cpu time :     7.6 secs   av.it.:   9.4
      thresh= 2.845E-05 alpha_mix =  0.700 |ddv_scf|^2 =  3.250E-09

      iter #   3 total cpu time :     8.0 secs   av.it.:   9.3
      thresh= 5.701E-06 alpha_mix =  0.700 |ddv_scf|^2 =  3.558E-11

      iter #   4 total cpu time :     8.4 secs   av.it.:   9.2
      thresh= 5.965E-07 alpha_mix =  0.700 |ddv_scf|^2 =  7.461E-14

      iter #   5 total cpu time :     9.0 secs   av.it.:   9.5
      thresh= 2.731E-08 alpha_mix =  0.700 |ddv_scf|^2 =  1.301E-15

      iter #   6 total cpu time :     9.4 secs   av.it.:   9.2
      thresh= 3.607E-09 alpha_mix =  0.700 |ddv_scf|^2 =  5.184E-19

     End of self-consistent calculation

     Convergence has been achieved 

     Number of q in the star =    1
     List of q in the star:
          1   0.000000000   0.000000000   0.000000000

          Dielectric constant in cartesian axis 

          (      24.148788413       0.000000000       0.000000000 )
          (      -0.000000000      24.148788413      -0.000000000 )
          (       0.000000000       0.000000000      24.148788413 )

          Effective charges (d Force / dE) in cartesian axis

           atom      1   Si 
      Ex  (       -1.22876       -0.00000       -0.00000 )
      Ey  (       -0.00000       -1.22876        0.00000 )
      Ez  (       -0.00000        0.00000       -1.22876 )
           atom      2   Si 
      Ex  (       -1.22876        0.00000        0.00000 )
      Ey  (        0.00000       -1.22876       -0.00000 )
      Ez  (        0.00000       -0.00000       -1.22876 )

          Effective charges (d P / du) in cartesian axis 

           atom      1   Si 
      Px  (       -1.22876        0.00000       -0.00000 )
      Py  (        0.00000       -1.22876        0.00000 )
      Pz  (        0.00000        0.00000       -1.22876 )
           atom      2   Si 
      Px  (       -1.22876       -0.00000        0.00000 )
      Py  (       -0.00000       -1.22876        0.00000 )
      Pz  (       -0.00000       -0.00000       -1.22876 )

     Diagonalizing the dynamical matrix

     q = (    0.000000000   0.000000000   0.000000000 ) 

 **************************************************************************
     freq (    1) =       0.127157 [THz] =       4.241515 [cm-1]
     freq (    2) =       0.127157 [THz] =       4.241515 [cm-1]
     freq (    3) =       0.127157 [THz] =       4.241515 [cm-1]
     freq (    4) =      15.969224 [THz] =     532.675989 [cm-1]
     freq (    5) =      15.969224 [THz] =     532.675989 [cm-1]
     freq (    6) =      15.969224 [THz] =     532.675989 [cm-1]
 **************************************************************************

     Mode symmetry, O_h (m-3m)  point group:

     freq (   1-   3) =          4.2  [cm-1]   --> T_1u G_15  G_4- I  
     freq (   4-   6) =        532.7  [cm-1]   --> T_2g G_25' G_5+ R  

     Calculation of q =   -0.2500000   0.2500000  -0.2500000

     Subspace diagonalization in iterative solution of the eigenvalue problem:
     a serial algorithm will be used


     Parallelization info
     --------------------
     sticks:   dense  smooth     PW     G-vecs:    dense   smooth      PW
     Min          87      87     30                 1027     1027     216
     Max          88      88     31                 1028     1028     218
     Sum         349     349    121                 4111     4111     869

     Using Slab Decomposition


     Title: 
     Ph                                                                         


     bravais-lattice index     =            2
     lattice parameter (alat)  =      10.1000  a.u.
     unit-cell volume          =     257.5752 (a.u.)^3
     number of atoms/cell      =            2
     number of atomic types    =            1
     number of electrons       =         8.00
     number of Kohn-Sham states=            4
     kinetic-energy cutoff     =      24.0000  Ry
     charge density cutoff     =      96.0000  Ry
     Exchange-correlation= PZ
                           (   1   1   0   0   0   0   0)

     celldm(1)=  10.100000  celldm(2)=   0.000000  celldm(3)=   0.000000
     celldm(4)=   0.000000  celldm(5)=   0.000000  celldm(6)=   0.000000

     crystal axes: (cart. coord. in units of alat)
               a(1) = (  -0.500000   0.000000   0.500000 )  
               a(2) = (   0.000000   0.500000   0.500000 )  
               a(3) = (  -0.500000   0.500000   0.000000 )  

     reciprocal axes: (cart. coord. in units 2 pi/alat)
               b(1) = ( -1.000000 -1.000000  1.000000 )  
               b(2) = (  1.000000  1.000000  1.000000 )  
               b(3) = ( -1.000000  1.000000 -1.000000 )  


     PseudoPot. # 1 for Si read from file:
     ../Si.pz-rrkj.UPF
     MD5 check sum: 884b380b739b48e9cd334294cddc9a8d
     Pseudo is Norm-conserving, Zval =  4.0
     Generated using "atomic" code by A. Dal Corso (espresso distribution)
     Using radial grid of 1141 points,  2 beta functions with: 
                l(1) =   0
                l(2) =   1

     atomic species   valence    mass     pseudopotential
        Si             4.00    28.08600     Si( 1.00)

     48 Sym. Ops., with inversion, found



   Cartesian axes

     site n.     atom                  positions (alat units)
         1           Si  tau(   1) = (   0.0000000   0.0000000   0.0000000  )
         2           Si  tau(   2) = (   0.2500000   0.2500000   0.2500000  )

     number of k points=    40
                       cart. coord. in units 2pi/alat
        k(    1) = (   0.0000000   0.0000000   0.0000000), wk =   0.0312500
        k(    2) = (  -0.2500000   0.2500000  -0.2500000), wk =   0.0000000
        k(    3) = (  -0.2500000   0.2500000  -0.2500000), wk =   0.0312500
        k(    4) = (  -0.5000000   0.5000000  -0.5000000), wk =   0.0000000
        k(    5) = (   0.5000000  -0.5000000   0.5000000), wk =   0.0312500
        k(    6) = (   0.2500000  -0.2500000   0.2500000), wk =   0.0000000
        k(    7) = (   0.0000000   0.5000000   0.0000000), wk =   0.0937500
        k(    8) = (  -0.2500000   0.7500000  -0.2500000), wk =   0.0000000
        k(    9) = (   0.7500000  -0.2500000   0.7500000), wk =   0.0937500
        k(   10) = (   0.5000000   0.0000000   0.5000000), wk =   0.0000000
        k(   11) = (   0.5000000   0.0000000   0.5000000), wk =   0.0937500
        k(   12) = (   0.2500000   0.2500000   0.2500000), wk =   0.0000000
        k(   13) = (   0.0000000  -1.0000000   0.0000000), wk =   0.0937500
        k(   14) = (  -0.2500000  -0.7500000  -0.2500000), wk =   0.0000000
        k(   15) = (  -0.5000000  -1.0000000   0.0000000), wk =   0.1875000
        k(   16) = (  -0.7500000  -0.7500000  -0.2500000), wk =   0.0000000
        k(   17) = (   0.2500000  -0.2500000  -0.2500000), wk =   0.0937500
        k(   18) = (   0.0000000   0.0000000  -0.5000000), wk =   0.0000000
        k(   19) = (   0.2500000  -0.2500000   0.2500000), wk =   0.0312500
        k(   20) = (   0.0000000   0.0000000   0.0000000), wk =   0.0000000
        k(   21) = (  -0.2500000  -0.2500000  -0.2500000), wk =   0.0937500
        k(   22) = (  -0.5000000   0.0000000  -0.5000000), wk =   0.0000000
        k(   23) = (  -0.5000000   0.5000000   0.5000000), wk =   0.0937500
        k(   24) = (  -0.7500000   0.7500000   0.2500000), wk =   0.0000000
        k(   25) = (   0.0000000   0.0000000   0.5000000), wk =   0.0937500
        k(   26) = (  -0.2500000   0.2500000   0.2500000), wk =   0.0000000
        k(   27) = (  -0.7500000   0.7500000   0.2500000), wk =   0.0937500
        k(   28) = (  -1.0000000   1.0000000   0.0000000), wk =   0.0000000
        k(   29) = (  -0.7500000   0.7500000  -0.2500000), wk =   0.0937500
        k(   30) = (  -1.0000000   1.0000000  -0.5000000), wk =   0.0000000
        k(   31) = (  -0.7500000   0.2500000   0.7500000), wk =   0.1875000
        k(   32) = (  -1.0000000   0.5000000   0.5000000), wk =   0.0000000
        k(   33) = (   0.7500000   0.2500000   0.7500000), wk =   0.0937500
        k(   34) = (   0.5000000   0.5000000   0.5000000), wk =   0.0000000
        k(   35) = (   0.7500000  -0.2500000  -0.7500000), wk =   0.1875000
        k(   36) = (   0.5000000   0.0000000  -1.0000000), wk =   0.0000000
        k(   37) = (  -0.5000000   0.5000000   0.0000000), wk =   0.0937500
        k(   38) = (  -0.7500000   0.7500000  -0.2500000), wk =   0.0000000
        k(   39) = (  -0.5000000   0.0000000   0.5000000), wk =   0.1875000
        k(   40) = (  -0.7500000   0.2500000   0.2500000), wk =   0.0000000

     Dense  grid:     4111 G-vectors     FFT dimensions: (  24,  24,  24)

     Estimated max dynamical RAM per process >       0.54 MB

     Estimated total dynamical RAM >       2.16 MB

     The potential is recalculated from file :
     ./tmp/_ph0/silicon.save/charge-density

     Starting wfcs are    8 atomic wfcs

     Band Structure Calculation
     Davidson diagonalization with overlap

     ethr =  1.25E-10,  avg # of iterations =  9.8

     total cpu time spent up to now is        0.7 secs

     End of band structure calculation

          k = 0.0000 0.0000 0.0000 (   531 PWs)   bands (ev):

    -5.7223   6.5742   6.5742   6.5742

          k =-0.2500 0.2500-0.2500 (   516 PWs)   bands (ev):

    -4.8873   2.5377   5.7851   5.7851

          k =-0.2500 0.2500-0.2500 (   516 PWs)   bands (ev):

    -4.8873   2.5377   5.7851   5.7851

          k =-0.5000 0.5000-0.5000 (   502 PWs)   bands (ev):

    -3.2592  -0.6509   5.3377   5.3377

          k = 0.5000-0.5000 0.5000 (   502 PWs)   bands (ev):

    -3.2592  -0.6509   5.3377   5.3377

          k = 0.2500-0.2500 0.2500 (   516 PWs)   bands (ev):

    -4.8873   2.5377   5.7851   5.7851

          k = 0.0000 0.5000 0.0000 (   504 PWs)   bands (ev):

    -4.5945   3.0517   4.5932   4.5932

          k =-0.2500 0.7500-0.2500 (   510 PWs)   bands (ev):

    -2.8746   0.0484   2.8602   4.2709

          k = 0.7500-0.2500 0.7500 (   510 PWs)   bands (ev):

    -2.8746   0.0484   2.8602   4.2709

          k = 0.5000 0.0000 0.5000 (   512 PWs)   bands (ev):

    -3.5836   0.9950   2.6094   5.1943

          k = 0.5000 0.0000 0.5000 (   512 PWs)   bands (ev):

    -3.5836   0.9950   2.6094   5.1943

          k = 0.2500 0.2500 0.2500 (   516 PWs)   bands (ev):

    -4.8873   2.5377   5.7851   5.7851

          k = 0.0000-1.0000 0.0000 (   524 PWs)   bands (ev):

    -1.4019  -1.4019   3.5941   3.5941

          k =-0.2500-0.7500-0.2500 (   510 PWs)   bands (ev):

    -2.8746   0.0484   2.8602   4.2709

          k =-0.5000-1.0000 0.0000 (   516 PWs)   bands (ev):

    -1.2112  -1.2112   2.4893   2.4893

          k =-0.7500-0.7500-0.2500 (   510 PWs)   bands (ev):

    -2.8746   0.0484   2.8602   4.2709

          k = 0.2500-0.2500-0.2500 (   516 PWs)   bands (ev):

    -4.8873   2.5377   5.7851   5.7851

          k = 0.0000 0.0000-0.5000 (   504 PWs)   bands (ev):

    -4.5945   3.0517   4.5932   4.5932

          k = 0.2500-0.2500 0.2500 (   516 PWs)   bands (ev):

    -4.8873   2.5377   5.7851   5.7851

          k = 0.0000 0.0000 0.0000 (   531 PWs)   bands (ev):

    -5.7223   6.5742   6.5742   6.5742

          k =-0.2500-0.2500-0.2500 (   516 PWs)   bands (ev):

    -4.8873   2.5377   5.7851   5.7851

          k =-0.5000 0.0000-0.5000 (   512 PWs)   bands (ev):

    -3.5836   0.9950   2.6094   5.1943

          k =-0.5000 0.5000 0.5000 (   502 PWs)   bands (ev):

    -3.2592  -0.6509   5.3377   5.3377

          k =-0.7500 0.7500 0.2500 (   510 PWs)   bands (ev):

    -2.8746   0.0484   2.8602   4.2709

          k = 0.0000 0.0000 0.5000 (   504 PWs)   bands (ev):

    -4.5945   3.0517   4.5932   4.5932

          k =-0.2500 0.2500 0.2500 (   516 PWs)   bands (ev):

    -4.8873   2.5377   5.7851   5.7851

          k =-0.7500 0.7500 0.2500 (   510 PWs)   bands (ev):

    -2.8746   0.0484   2.8602   4.2709

          k =-1.0000 1.0000 0.0000 (   524 PWs)   bands (ev):

    -1.4019  -1.4019   3.5941   3.5941

          k =-0.7500 0.7500-0.2500 (   510 PWs)   bands (ev):

    -2.8746   0.0484   2.8602   4.2709

          k =-1.0000 1.0000-0.5000 (   504 PWs)   bands (ev):

    -4.5945   3.0517   4.5932   4.5932

          k =-0.7500 0.2500 0.7500 (   510 PWs)   bands (ev):

    -2.8746   0.0484   2.8602   4.2709

          k =-1.0000 0.5000 0.5000 (   512 PWs)   bands (ev):

    -3.5836   0.9950   2.6094   5.1943

          k = 0.7500 0.2500 0.7500 (   510 PWs)   bands (ev):

    -2.8746   0.0484   2.8602   4.2709

          k = 0.5000 0.5000 0.5000 (   502 PWs)   bands (ev):

    -3.2592  -0.6509   5.3377   5.3377

          k = 0.7500-0.2500-0.7500 (   510 PWs)   bands (ev):

    -2.8746   0.0484   2.8602   4.2709

          k = 0.5000 0.0000-1.0000 (   516 PWs)   bands (ev):

    -1.2112  -1.2112   2.4893   2.4893

          k =-0.5000 0.5000 0.0000 (   512 PWs)   bands (ev):

    -3.5836   0.9950   2.6094   5.1943

          k =-0.7500 0.7500-0.2500 (   510 PWs)   bands (ev):

    -2.8746   0.0484   2.8602   4.2709

          k =-0.5000 0.0000 0.5000 (   512 PWs)   bands (ev):

    -3.5836   0.9950   2.6094   5.1943

          k =-0.7500 0.2500 0.2500 (   510 PWs)   bands (ev):

    -2.8746   0.0484   2.8602   4.2709

     highest occupied level (ev):     6.5742

     Writing output data file ./tmp/_ph0/silicon.save/

     Ph                                                                         

     bravais-lattice index     =            2
     lattice parameter (alat)  =      10.1000  a.u.
     unit-cell volume          =     257.5752 (a.u.)^3
     number of atoms/cell      =            2
     number of atomic types    =            1
     kinetic-energy cut-off    =      24.0000  Ry
     charge density cut-off    =      96.0000  Ry
     convergence threshold     =      1.0E-16
     beta                      =       0.7000
     number of iterations used =            4
     Exchange-correlation= PZ
                           (   1   1   0   0   0   0   0)


     celldm(1)=   10.10000  celldm(2)=    0.00000  celldm(3)=    0.00000
     celldm(4)=    0.00000  celldm(5)=    0.00000  celldm(6)=    0.00000

     crystal axes: (cart. coord. in units of alat)
               a(1) = ( -0.5000  0.0000  0.5000 )  
               a(2) = (  0.0000  0.5000  0.5000 )  
               a(3) = ( -0.5000  0.5000  0.0000 )  

     reciprocal axes: (cart. coord. in units 2 pi/alat)
               b(1) = ( -1.0000 -1.0000  1.0000 )  
               b(2) = (  1.0000  1.0000  1.0000 )  
               b(3) = ( -1.0000  1.0000 -1.0000 )  


     Atoms inside the unit cell: 

     Cartesian axes

     site n.  atom      mass           positions (alat units)
        1     Si  28.0860   tau(    1) = (    0.00000    0.00000    0.00000  )
        2     Si  28.0860   tau(    2) = (    0.25000    0.25000    0.25000  )

     Computing dynamical matrix for 
                    q = (  -0.2500000   0.2500000  -0.2500000 )

      6 Sym.Ops. (no q -> -q+G )


     G cutoff =  248.0586  (   1028 G-vectors)     FFT grid: ( 24, 24, 24)
     number of k points=    40

     PseudoPot. # 1 for Si read from file:
     ../Si.pz-rrkj.UPF
     MD5 check sum: 884b380b739b48e9cd334294cddc9a8d
     Pseudo is Norm-conserving, Zval =  4.0
     Generated using "atomic" code by A. Dal Corso (espresso distribution)
     Using radial grid of 1141 points,  2 beta functions with: 
                l(1) =   0
                l(2) =   1

     Mode symmetry, C_3v (3m)   point group:


     Atomic displacements:
     There are    4 irreducible representations

     Representation     1      1 modes -  To be done

     Representation     2      1 modes -  To be done

     Representation     3      2 modes -  To be done

     Representation     4      2 modes -  To be done



     Alpha used in Ewald sum =   1.0000
     PHONON       :      7.55s CPU     10.14s WALL



     Representation #   1 mode #   1

     Self-consistent Calculation

      iter #   1 total cpu time :    10.4 secs   av.it.:   5.9
      thresh= 1.000E-02 alpha_mix =  0.700 |ddv_scf|^2 =  1.503E-03

      iter #   2 total cpu time :    10.6 secs   av.it.:   7.7
      thresh= 3.877E-03 alpha_mix =  0.700 |ddv_scf|^2 =  2.138E-02

      iter #   3 total cpu time :    10.9 secs   av.it.:   6.5
      thresh= 1.000E-02 alpha_mix =  0.700 |ddv_scf|^2 =  1.074E-06

      iter #   4 total cpu time :    11.2 secs   av.it.:   8.0
      thresh= 1.036E-04 alpha_mix =  0.700 |ddv_scf|^2 =  8.781E-08

      iter #   5 total cpu time :    11.4 secs   av.it.:   7.7
      thresh= 2.963E-05 alpha_mix =  0.700 |ddv_scf|^2 =  3.386E-10

      iter #   6 total cpu time :    11.7 secs   av.it.:   7.9
      thresh= 1.840E-06 alpha_mix =  0.700 |ddv_scf|^2 =  2.184E-10

      iter #   7 total cpu time :    12.0 secs   av.it.:   6.7
      thresh= 1.478E-06 alpha_mix =  0.700 |ddv_scf|^2 =  7.233E-11

      iter #   8 total cpu time :    12.3 secs   av.it.:   7.2
      thresh= 8.505E-07 alpha_mix =  0.700 |ddv_scf|^2 =  2.757E-13

      iter #   9 total cpu time :    12.5 secs   av.it.:   7.1
      thresh= 5.251E-08 alpha_mix =  0.700 |ddv_scf|^2 =  6.410E-15

      iter #  10 total cpu time :    12.8 secs   av.it.:   7.8
      thresh= 8.006E-09 alpha_mix =  0.700 |ddv_scf|^2 =  5.074E-15

      iter #  11 total cpu time :    13.1 secs   av.it.:   7.3
      thresh= 7.123E-09 alpha_mix =  0.700 |ddv_scf|^2 =  1.038E-16

      iter #  12 total cpu time :    13.4 secs   av.it.:   7.5
      thresh= 1.019E-09 alpha_mix =  0.700 |ddv_scf|^2 =  2.803E-18

     End of self-consistent calculation

     Convergence has been achieved 


     Representation #   2 mode #   2

     Self-consistent Calculation

      iter #   1 total cpu time :    13.6 secs   av.it.:   5.9
      thresh= 1.000E-02 alpha_mix =  0.700 |ddv_scf|^2 =  1.503E-03

      iter #   2 total cpu time :    13.9 secs   av.it.:   7.7
      thresh= 3.877E-03 alpha_mix =  0.700 |ddv_scf|^2 =  2.137E-02

      iter #   3 total cpu time :    14.1 secs   av.it.:   6.5
      thresh= 1.000E-02 alpha_mix =  0.700 |ddv_scf|^2 =  1.069E-06

      iter #   4 total cpu time :    14.4 secs   av.it.:   8.0
      thresh= 1.034E-04 alpha_mix =  0.700 |ddv_scf|^2 =  8.863E-08

      iter #   5 total cpu time :    14.7 secs   av.it.:   7.6
      thresh= 2.977E-05 alpha_mix =  0.700 |ddv_scf|^2 =  3.559E-10

      iter #   6 total cpu time :    14.9 secs   av.it.:   7.8
      thresh= 1.887E-06 alpha_mix =  0.700 |ddv_scf|^2 =  1.114E-11

      iter #   7 total cpu time :    15.2 secs   av.it.:   8.1
      thresh= 3.338E-07 alpha_mix =  0.700 |ddv_scf|^2 =  2.927E-11

      iter #   8 total cpu time :    15.5 secs   av.it.:   6.3
      thresh= 5.410E-07 alpha_mix =  0.700 |ddv_scf|^2 =  3.756E-13

      iter #   9 total cpu time :    15.7 secs   av.it.:   6.8
      thresh= 6.129E-08 alpha_mix =  0.700 |ddv_scf|^2 =  6.922E-15

      iter #  10 total cpu time :    16.0 secs   av.it.:   7.8
      thresh= 8.320E-09 alpha_mix =  0.700 |ddv_scf|^2 =  5.823E-15

      iter #  11 total cpu time :    16.2 secs   av.it.:   7.3
      thresh= 7.631E-09 alpha_mix =  0.700 |ddv_scf|^2 =  9.240E-17

     End of self-consistent calculation

     Convergence has been achieved 


     Representation #   3 modes #   3   4

     Self-consistent Calculation

      iter #   1 total cpu time :    16.7 secs   av.it.:   5.3
      thresh= 1.000E-02 alpha_mix =  0.700 |ddv_scf|^2 =  3.103E-07

      iter #   2 total cpu time :    17.4 secs   av.it.:   9.6
      thresh= 5.571E-05 alpha_mix =  0.700 |ddv_scf|^2 =  1.848E-08

      iter #   3 total cpu time :    18.0 secs   av.it.:   9.4
      thresh= 1.359E-05 alpha_mix =  0.700 |ddv_scf|^2 =  1.018E-10

      iter #   4 total cpu time :    18.6 secs   av.it.:   9.2
      thresh= 1.009E-06 alpha_mix =  0.700 |ddv_scf|^2 =  6.128E-12

      iter #   5 total cpu time :    19.2 secs   av.it.:   9.2
      thresh= 2.475E-07 alpha_mix =  0.700 |ddv_scf|^2 =  1.081E-14

      iter #   6 total cpu time :    20.0 secs   av.it.:   9.6
      thresh= 1.040E-08 alpha_mix =  0.700 |ddv_scf|^2 =  1.843E-16

      iter #   7 total cpu time :    20.7 secs   av.it.:   9.9
      thresh= 1.357E-09 alpha_mix =  0.700 |ddv_scf|^2 =  1.065E-18

     End of self-consistent calculation

     Convergence has been achieved 


     Representation #   4 modes #   5   6

     Self-consistent Calculation

      iter #   1 total cpu time :    21.2 secs   av.it.:   5.3
      thresh= 1.000E-02 alpha_mix =  0.700 |ddv_scf|^2 =  3.105E-07

      iter #   2 total cpu time :    21.9 secs   av.it.:   9.6
      thresh= 5.572E-05 alpha_mix =  0.700 |ddv_scf|^2 =  1.852E-08

      iter #   3 total cpu time :    22.5 secs   av.it.:   9.3
      thresh= 1.361E-05 alpha_mix =  0.700 |ddv_scf|^2 =  1.017E-10

      iter #   4 total cpu time :    23.2 secs   av.it.:   9.2
      thresh= 1.009E-06 alpha_mix =  0.700 |ddv_scf|^2 =  6.138E-12

      iter #   5 total cpu time :    23.9 secs   av.it.:   9.2
      thresh= 2.478E-07 alpha_mix =  0.700 |ddv_scf|^2 =  1.062E-14

      iter #   6 total cpu time :    24.5 secs   av.it.:   9.6
      thresh= 1.030E-08 alpha_mix =  0.700 |ddv_scf|^2 =  1.860E-16

      iter #   7 total cpu time :    25.2 secs   av.it.:   9.7
      thresh= 1.364E-09 alpha_mix =  0.700 |ddv_scf|^2 =  1.011E-18

     End of self-consistent calculation

     Convergence has been achieved 

     Number of q in the star =    8
     List of q in the star:
          1  -0.250000000   0.250000000  -0.250000000
          2   0.250000000  -0.250000000  -0.250000000
          3   0.250000000  -0.250000000   0.250000000
          4   0.250000000   0.250000000   0.250000000
          5  -0.250000000  -0.250000000  -0.250000000
          6  -0.250000000  -0.250000000   0.250000000
          7  -0.250000000   0.250000000   0.250000000
          8   0.250000000   0.250000000  -0.250000000

     Diagonalizing the dynamical matrix

     q = (   -0.250000000   0.250000000  -0.250000000 ) 

 **************************************************************************
     freq (    1) =       2.703968 [THz] =      90.194655 [cm-1]
     freq (    2) =       2.703968 [THz] =      90.194655 [cm-1]
     freq (    3) =       7.045509 [THz] =     235.012868 [cm-1]
     freq (    4) =      15.084504 [THz] =     503.164891 [cm-1]
     freq (    5) =      15.348824 [THz] =     511.981654 [cm-1]
     freq (    6) =      15.348824 [THz] =     511.981654 [cm-1]
 **************************************************************************

     Mode symmetry, C_3v (3m)   point group:

     freq (   1-   2) =         90.2  [cm-1]   --> E    L_3           
     freq (   3-   3) =        235.0  [cm-1]   --> A_1  L_1           
     freq (   4-   4) =        503.2  [cm-1]   --> A_1  L_1           
     freq (   5-   6) =        512.0  [cm-1]   --> E    L_3           

     Calculation of q =    0.5000000  -0.5000000   0.5000000

     Parallelization info
     --------------------
     sticks:   dense  smooth     PW     G-vecs:    dense   smooth      PW
     Min          87      87     30                 1027     1027     234
     Max          88      88     31                 1028     1028     238
     Sum         349     349    121                 4111     4111     941

     Using Slab Decomposition


     Title: 
     Ph                                                                         


     bravais-lattice index     =            2
     lattice parameter (alat)  =      10.1000  a.u.
     unit-cell volume          =     257.5752 (a.u.)^3
     number of atoms/cell      =            2
     number of atomic types    =            1
     number of electrons       =         8.00
     number of Kohn-Sham states=            4
     kinetic-energy cutoff     =      24.0000  Ry
     charge density cutoff     =      96.0000  Ry
     Exchange-correlation= PZ
                           (   1   1   0   0   0   0   0)

     celldm(1)=  10.100000  celldm(2)=   0.000000  celldm(3)=   0.000000
     celldm(4)=   0.000000  celldm(5)=   0.000000  celldm(6)=   0.000000

     crystal axes: (cart. coord. in units of alat)
               a(1) = (  -0.500000   0.000000   0.500000 )  
               a(2) = (   0.000000   0.500000   0.500000 )  
               a(3) = (  -0.500000   0.500000   0.000000 )  

     reciprocal axes: (cart. coord. in units 2 pi/alat)
               b(1) = ( -1.000000 -1.000000  1.000000 )  
               b(2) = (  1.000000  1.000000  1.000000 )  
               b(3) = ( -1.000000  1.000000 -1.000000 )  


     PseudoPot. # 1 for Si read from file:
     ../Si.pz-rrkj.UPF
     MD5 check sum: 884b380b739b48e9cd334294cddc9a8d
     Pseudo is Norm-conserving, Zval =  4.0
     Generated using "atomic" code by A. Dal Corso (espresso distribution)
     Using radial grid of 1141 points,  2 beta functions with: 
                l(1) =   0
                l(2) =   1

     atomic species   valence    mass     pseudopotential
        Si             4.00    28.08600     Si( 1.00)

     48 Sym. Ops., with inversion, found



   Cartesian axes

     site n.     atom                  positions (alat units)
         1           Si  tau(   1) = (   0.0000000   0.0000000   0.0000000  )
         2           Si  tau(   2) = (   0.2500000   0.2500000   0.2500000  )

     number of k points=    26
                       cart. coord. in units 2pi/alat
        k(    1) = (   0.0000000   0.0000000   0.0000000), wk =   0.0312500
        k(    2) = (   0.5000000  -0.5000000   0.5000000), wk =   0.0000000
        k(    3) = (  -0.2500000   0.2500000  -0.2500000), wk =   0.0625000
        k(    4) = (   0.2500000  -0.2500000   0.2500000), wk =   0.0000000
        k(    5) = (   0.5000000  -0.5000000   0.5000000), wk =   0.0312500
        k(    6) = (   1.0000000  -1.0000000   1.0000000), wk =   0.0000000
        k(    7) = (   0.0000000   0.5000000   0.0000000), wk =   0.1875000
        k(    8) = (   0.5000000   0.0000000   0.5000000), wk =   0.0000000
        k(    9) = (   0.7500000  -0.2500000   0.7500000), wk =   0.1875000
        k(   10) = (   1.2500000  -0.7500000   1.2500000), wk =   0.0000000
        k(   11) = (   0.5000000   0.0000000   0.5000000), wk =   0.1875000
        k(   12) = (   1.0000000  -0.5000000   1.0000000), wk =   0.0000000
        k(   13) = (   0.0000000  -1.0000000   0.0000000), wk =   0.0937500
        k(   14) = (   0.5000000  -1.5000000   0.5000000), wk =   0.0000000
        k(   15) = (  -0.5000000  -1.0000000   0.0000000), wk =   0.1875000
        k(   16) = (   0.0000000  -1.5000000   0.5000000), wk =   0.0000000
        k(   17) = (  -0.2500000  -0.2500000  -0.2500000), wk =   0.1875000
        k(   18) = (   0.2500000  -0.7500000   0.2500000), wk =   0.0000000
        k(   19) = (   0.5000000   0.5000000   0.5000000), wk =   0.0937500
        k(   20) = (   1.0000000   0.0000000   1.0000000), wk =   0.0000000
        k(   21) = (   0.7500000   0.2500000   0.7500000), wk =   0.1875000
        k(   22) = (   1.2500000  -0.2500000   1.2500000), wk =   0.0000000
        k(   23) = (  -0.7500000   0.2500000   0.7500000), wk =   0.3750000
        k(   24) = (  -0.2500000  -0.2500000   1.2500000), wk =   0.0000000
        k(   25) = (  -0.5000000   0.0000000   0.5000000), wk =   0.1875000
        k(   26) = (   0.0000000  -0.5000000   1.0000000), wk =   0.0000000

     Dense  grid:     4111 G-vectors     FFT dimensions: (  24,  24,  24)

     Estimated max dynamical RAM per process >       0.54 MB

     Estimated total dynamical RAM >       2.16 MB

     The potential is recalculated from file :
     ./tmp/_ph0/silicon.save/charge-density

     Starting wfcs are    8 atomic wfcs

     Band Structure Calculation
     Davidson diagonalization with overlap

     ethr =  1.25E-10,  avg # of iterations =  9.5

     total cpu time spent up to now is        1.7 secs

     End of band structure calculation

          k = 0.0000 0.0000 0.0000 (   531 PWs)   bands (ev):

    -5.7223   6.5742   6.5742   6.5742

          k = 0.5000-0.5000 0.5000 (   502 PWs)   bands (ev):

    -3.2592  -0.6509   5.3377   5.3377

          k =-0.2500 0.2500-0.2500 (   516 PWs)   bands (ev):

    -4.8873   2.5377   5.7851   5.7851

          k = 0.2500-0.2500 0.2500 (   516 PWs)   bands (ev):

    -4.8873   2.5377   5.7851   5.7851

          k = 0.5000-0.5000 0.5000 (   502 PWs)   bands (ev):

    -3.2592  -0.6509   5.3377   5.3377

          k = 1.0000-1.0000 1.0000 (   531 PWs)   bands (ev):

    -5.7223   6.5742   6.5742   6.5742

          k = 0.0000 0.5000 0.0000 (   504 PWs)   bands (ev):

    -4.5945   3.0517   4.5932   4.5932

          k = 0.5000 0.0000 0.5000 (   512 PWs)   bands (ev):

    -3.5836   0.9950   2.6094   5.1943

          k = 0.7500-0.2500 0.7500 (   510 PWs)   bands (ev):

    -2.8746   0.0484   2.8602   4.2709

          k = 1.2500-0.7500 1.2500 (   516 PWs)   bands (ev):

    -4.8873   2.5377   5.7851   5.7851

          k = 0.5000 0.0000 0.5000 (   512 PWs)   bands (ev):

    -3.5836   0.9950   2.6094   5.1943

          k = 1.0000-0.5000 1.0000 (   504 PWs)   bands (ev):

    -4.5945   3.0517   4.5932   4.5932

          k = 0.0000-1.0000 0.0000 (   524 PWs)   bands (ev):

    -1.4019  -1.4019   3.5941   3.5941

          k = 0.5000-1.5000 0.5000 (   502 PWs)   bands (ev):

    -3.2592  -0.6509   5.3377   5.3377

          k =-0.5000-1.0000 0.0000 (   516 PWs)   bands (ev):

    -1.2112  -1.2112   2.4893   2.4893

          k = 0.0000-1.5000 0.5000 (   512 PWs)   bands (ev):

    -3.5836   0.9950   2.6094   5.1943

          k =-0.2500-0.2500-0.2500 (   516 PWs)   bands (ev):

    -4.8873   2.5377   5.7851   5.7851

          k = 0.2500-0.7500 0.2500 (   510 PWs)   bands (ev):

    -2.8746   0.0484   2.8602   4.2709

          k = 0.5000 0.5000 0.5000 (   502 PWs)   bands (ev):

    -3.2592  -0.6509   5.3377   5.3377

          k = 1.0000 0.0000 1.0000 (   524 PWs)   bands (ev):

    -1.4019  -1.4019   3.5941   3.5941

          k = 0.7500 0.2500 0.7500 (   510 PWs)   bands (ev):

    -2.8746   0.0484   2.8602   4.2709

          k = 1.2500-0.2500 1.2500 (   510 PWs)   bands (ev):

    -2.8746   0.0484   2.8602   4.2709

          k =-0.7500 0.2500 0.7500 (   510 PWs)   bands (ev):

    -2.8746   0.0484   2.8602   4.2709

          k =-0.2500-0.2500 1.2500 (   510 PWs)   bands (ev):

    -2.8746   0.0484   2.8602   4.2709

          k =-0.5000 0.0000 0.5000 (   512 PWs)   bands (ev):

    -3.5836   0.9950   2.6094   5.1943

          k = 0.0000-0.5000 1.0000 (   516 PWs)   bands (ev):

    -1.2112  -1.2112   2.4893   2.4893

     highest occupied level (ev):     6.5742

     Writing output data file ./tmp/_ph0/silicon.save/

     Ph                                                                         

     bravais-lattice index     =            2
     lattice parameter (alat)  =      10.1000  a.u.
     unit-cell volume          =     257.5752 (a.u.)^3
     number of atoms/cell      =            2
     number of atomic types    =            1
     kinetic-energy cut-off    =      24.0000  Ry
     charge density cut-off    =      96.0000  Ry
     convergence threshold     =      1.0E-16
     beta                      =       0.7000
     number of iterations used =            4
     Exchange-correlation= PZ
                           (   1   1   0   0   0   0   0)


     celldm(1)=   10.10000  celldm(2)=    0.00000  celldm(3)=    0.00000
     celldm(4)=    0.00000  celldm(5)=    0.00000  celldm(6)=    0.00000

     crystal axes: (cart. coord. in units of alat)
               a(1) = ( -0.5000  0.0000  0.5000 )  
               a(2) = (  0.0000  0.5000  0.5000 )  
               a(3) = ( -0.5000  0.5000  0.0000 )  

     reciprocal axes: (cart. coord. in units 2 pi/alat)
               b(1) = ( -1.0000 -1.0000  1.0000 )  
               b(2) = (  1.0000  1.0000  1.0000 )  
               b(3) = ( -1.0000  1.0000 -1.0000 )  


     Atoms inside the unit cell: 

     Cartesian axes

     site n.  atom      mass           positions (alat units)
        1     Si  28.0860   tau(    1) = (    0.00000    0.00000    0.00000  )
        2     Si  28.0860   tau(    2) = (    0.25000    0.25000    0.25000  )

     Computing dynamical matrix for 
                    q = (   0.5000000  -0.5000000   0.5000000 )

     13 Sym.Ops. (with q -> -q+G )


     G cutoff =  248.0586  (   1028 G-vectors)     FFT grid: ( 24, 24, 24)
     number of k points=    26

     PseudoPot. # 1 for Si read from file:
     ../Si.pz-rrkj.UPF
     MD5 check sum: 884b380b739b48e9cd334294cddc9a8d
     Pseudo is Norm-conserving, Zval =  4.0
     Generated using "atomic" code by A. Dal Corso (espresso distribution)
     Using radial grid of 1141 points,  2 beta functions with: 
                l(1) =   0
                l(2) =   1


     Atomic displacements:
     There are    4 irreducible representations

     Representation     1      1 modes -  To be done

     Representation     2      1 modes -  To be done

     Representation     3      2 modes -  To be done

     Representation     4      2 modes -  To be done



     Alpha used in Ewald sum =   1.0000
     PHONON       :     20.44s CPU     26.28s WALL



     Representation #   1 mode #   1

     Self-consistent Calculation

      iter #   1 total cpu time :    26.5 secs   av.it.:   4.8
      thresh= 1.000E-02 alpha_mix =  0.700 |ddv_scf|^2 =  1.377E-05

      iter #   2 total cpu time :    26.8 secs   av.it.:   7.7
      thresh= 3.710E-04 alpha_mix =  0.700 |ddv_scf|^2 =  1.075E-05

      iter #   3 total cpu time :    27.3 secs   av.it.:   7.2
      thresh= 3.278E-04 alpha_mix =  0.700 |ddv_scf|^2 =  1.196E-09

      iter #   4 total cpu time :    28.2 secs   av.it.:   7.3
      thresh= 3.458E-06 alpha_mix =  0.700 |ddv_scf|^2 =  2.176E-11

      iter #   5 total cpu time :    28.5 secs   av.it.:   7.2
      thresh= 4.665E-07 alpha_mix =  0.700 |ddv_scf|^2 =  1.157E-13

      iter #   6 total cpu time :    28.9 secs   av.it.:   7.2
      thresh= 3.401E-08 alpha_mix =  0.700 |ddv_scf|^2 =  2.264E-15

      iter #   7 total cpu time :    29.1 secs   av.it.:   7.5
      thresh= 4.758E-09 alpha_mix =  0.700 |ddv_scf|^2 =  5.908E-18

     End of self-consistent calculation

     Convergence has been achieved 


     Representation #   2 mode #   2

     Self-consistent Calculation

      iter #   1 total cpu time :    29.3 secs   av.it.:   5.8
      thresh= 1.000E-02 alpha_mix =  0.700 |ddv_scf|^2 =  2.491E-04

      iter #   2 total cpu time :    29.5 secs   av.it.:   8.2
      thresh= 1.578E-03 alpha_mix =  0.700 |ddv_scf|^2 =  8.493E-04

      iter #   3 total cpu time :    29.7 secs   av.it.:   7.2
      thresh= 2.914E-03 alpha_mix =  0.700 |ddv_scf|^2 =  1.623E-08

      iter #   4 total cpu time :    29.9 secs   av.it.:   8.3
      thresh= 1.274E-05 alpha_mix =  0.700 |ddv_scf|^2 =  5.414E-10

      iter #   5 total cpu time :    30.1 secs   av.it.:   8.2
      thresh= 2.327E-06 alpha_mix =  0.700 |ddv_scf|^2 =  4.964E-11

      iter #   6 total cpu time :    30.4 secs   av.it.:   7.5
      thresh= 7.045E-07 alpha_mix =  0.700 |ddv_scf|^2 =  2.692E-14

      iter #   7 total cpu time :    30.5 secs   av.it.:   7.8
      thresh= 1.641E-08 alpha_mix =  0.700 |ddv_scf|^2 =  3.471E-15

      iter #   8 total cpu time :    30.7 secs   av.it.:   7.6
      thresh= 5.891E-09 alpha_mix =  0.700 |ddv_scf|^2 =  4.095E-16

      iter #   9 total cpu time :    30.9 secs   av.it.:   7.5
      thresh= 2.024E-09 alpha_mix =  0.700 |ddv_scf|^2 =  9.198E-20

     End of self-consistent calculation

     Convergence has been achieved 


     Representation #   3 modes #   3   4

     Self-consistent Calculation

      iter #   1 total cpu time :    31.2 secs   av.it.:   5.1
      thresh= 1.000E-02 alpha_mix =  0.700 |ddv_scf|^2 =  7.081E-07

      iter #   2 total cpu time :    31.6 secs   av.it.:   8.9
      thresh= 8.415E-05 alpha_mix =  0.700 |ddv_scf|^2 =  6.509E-08

      iter #   3 total cpu time :    32.0 secs   av.it.:   8.8
      thresh= 2.551E-05 alpha_mix =  0.700 |ddv_scf|^2 =  9.266E-11

      iter #   4 total cpu time :    32.4 secs   av.it.:   8.3
      thresh= 9.626E-07 alpha_mix =  0.700 |ddv_scf|^2 =  2.684E-13

      iter #   5 total cpu time :    32.9 secs   av.it.:   8.6
      thresh= 5.180E-08 alpha_mix =  0.700 |ddv_scf|^2 =  9.883E-16

      iter #   6 total cpu time :    33.3 secs   av.it.:   8.8
      thresh= 3.144E-09 alpha_mix =  0.700 |ddv_scf|^2 =  2.260E-17

     End of self-consistent calculation

     Convergence has been achieved 


     Representation #   4 modes #   5   6

     Self-consistent Calculation

      iter #   1 total cpu time :    33.6 secs   av.it.:   4.9
      thresh= 1.000E-02 alpha_mix =  0.700 |ddv_scf|^2 =  8.115E-08

      iter #   2 total cpu time :    34.0 secs   av.it.:   9.0
      thresh= 2.849E-05 alpha_mix =  0.700 |ddv_scf|^2 =  1.836E-09

      iter #   3 total cpu time :    34.4 secs   av.it.:   8.9
      thresh= 4.285E-06 alpha_mix =  0.700 |ddv_scf|^2 =  6.479E-11

      iter #   4 total cpu time :    35.0 secs   av.it.:   8.9
      thresh= 8.049E-07 alpha_mix =  0.700 |ddv_scf|^2 =  9.128E-14

      iter #   5 total cpu time :    35.7 secs   av.it.:   9.2
      thresh= 3.021E-08 alpha_mix =  0.700 |ddv_scf|^2 =  1.245E-15

      iter #   6 total cpu time :    36.2 secs   av.it.:   9.3
      thresh= 3.528E-09 alpha_mix =  0.700 |ddv_scf|^2 =  7.317E-18

     End of self-consistent calculation

     Convergence has been achieved 

     Number of q in the star =    4
     List of q in the star:
          1   0.500000000  -0.500000000   0.500000000
          2   0.500000000   0.500000000   0.500000000
          3  -0.500000000   0.500000000   0.500000000
          4   0.500000000   0.500000000  -0.500000000

     Diagonalizing the dynamical matrix

     q = (    0.500000000  -0.500000000   0.500000000 ) 

 **************************************************************************
     freq (    1) =       2.839430 [THz] =      94.713185 [cm-1]
     freq (    2) =       2.839430 [THz] =      94.713185 [cm-1]
     freq (    3) =      11.557337 [THz] =     385.511271 [cm-1]
     freq (    4) =      12.574868 [THz] =     419.452438 [cm-1]
     freq (    5) =      15.058389 [THz] =     502.293786 [cm-1]
     freq (    6) =      15.058389 [THz] =     502.293786 [cm-1]
 **************************************************************************

     Calculation of q =    0.0000000   0.5000000   0.0000000

     Parallelization info
     --------------------
     sticks:   dense  smooth     PW     G-vecs:    dense   smooth      PW
     Min          87      87     30                 1027     1027     216
     Max          88      88     31                 1028     1028     218
     Sum         349     349    121                 4111     4111     869

     Using Slab Decomposition


     Title: 
     Ph                                                                         


     bravais-lattice index     =            2
     lattice parameter (alat)  =      10.1000  a.u.
     unit-cell volume          =     257.5752 (a.u.)^3
     number of atoms/cell      =            2
     number of atomic types    =            1
     number of electrons       =         8.00
     number of Kohn-Sham states=            4
     kinetic-energy cutoff     =      24.0000  Ry
     charge density cutoff     =      96.0000  Ry
     Exchange-correlation= PZ
                           (   1   1   0   0   0   0   0)

     celldm(1)=  10.100000  celldm(2)=   0.000000  celldm(3)=   0.000000
     celldm(4)=   0.000000  celldm(5)=   0.000000  celldm(6)=   0.000000

     crystal axes: (cart. coord. in units of alat)
               a(1) = (  -0.500000   0.000000   0.500000 )  
               a(2) = (   0.000000   0.500000   0.500000 )  
               a(3) = (  -0.500000   0.500000   0.000000 )  

     reciprocal axes: (cart. coord. in units 2 pi/alat)
               b(1) = ( -1.000000 -1.000000  1.000000 )  
               b(2) = (  1.000000  1.000000  1.000000 )  
               b(3) = ( -1.000000  1.000000 -1.000000 )  


     PseudoPot. # 1 for Si read from file:
     ../Si.pz-rrkj.UPF
     MD5 check sum: 884b380b739b48e9cd334294cddc9a8d
     Pseudo is Norm-conserving, Zval =  4.0
     Generated using "atomic" code by A. Dal Corso (espresso distribution)
     Using radial grid of 1141 points,  2 beta functions with: 
                l(1) =   0
                l(2) =   1

     atomic species   valence    mass     pseudopotential
        Si             4.00    28.08600     Si( 1.00)

     48 Sym. Ops., with inversion, found



   Cartesian axes

     site n.     atom                  positions (alat units)
         1           Si  tau(   1) = (   0.0000000   0.0000000   0.0000000  )
         2           Si  tau(   2) = (   0.2500000   0.2500000   0.2500000  )

     number of k points=    36
                       cart. coord. in units 2pi/alat
        k(    1) = (   0.0000000   0.0000000   0.0000000), wk =   0.0312500
        k(    2) = (   0.0000000   0.5000000   0.0000000), wk =   0.0000000
        k(    3) = (  -0.2500000   0.2500000  -0.2500000), wk =   0.1250000
        k(    4) = (  -0.2500000   0.7500000  -0.2500000), wk =   0.0000000
        k(    5) = (   0.5000000  -0.5000000   0.5000000), wk =   0.1250000
        k(    6) = (   0.5000000   0.0000000   0.5000000), wk =   0.0000000
        k(    7) = (   0.0000000   0.5000000   0.0000000), wk =   0.0312500
        k(    8) = (   0.0000000   1.0000000   0.0000000), wk =   0.0000000
        k(    9) = (   0.7500000  -0.2500000   0.7500000), wk =   0.1250000
        k(   10) = (   0.7500000   0.2500000   0.7500000), wk =   0.0000000
        k(   11) = (   0.5000000   0.0000000   0.5000000), wk =   0.1250000
        k(   12) = (   0.5000000   0.5000000   0.5000000), wk =   0.0000000
        k(   13) = (   0.0000000  -1.0000000   0.0000000), wk =   0.0312500
        k(   14) = (   0.0000000  -0.5000000   0.0000000), wk =   0.0000000
        k(   15) = (  -0.5000000  -1.0000000   0.0000000), wk =   0.1250000
        k(   16) = (  -0.5000000  -0.5000000   0.0000000), wk =   0.0000000
        k(   17) = (   0.2500000  -0.2500000   0.2500000), wk =   0.1250000
        k(   18) = (   0.2500000   0.2500000   0.2500000), wk =   0.0000000
        k(   19) = (   0.0000000  -0.5000000   0.0000000), wk =   0.0312500
        k(   20) = (   0.0000000   0.0000000   0.0000000), wk =   0.0000000
        k(   21) = (   0.5000000   0.0000000   0.0000000), wk =   0.1250000
        k(   22) = (   0.5000000   0.5000000   0.0000000), wk =   0.0000000
        k(   23) = (  -0.7500000   0.2500000  -0.7500000), wk =   0.1250000
        k(   24) = (  -0.7500000   0.7500000  -0.7500000), wk =   0.0000000
        k(   25) = (  -0.2500000   0.7500000  -0.7500000), wk =   0.2500000
        k(   26) = (  -0.2500000   1.2500000  -0.7500000), wk =   0.0000000
        k(   27) = (  -0.2500000  -0.7500000  -0.7500000), wk =   0.2500000
        k(   28) = (  -0.2500000  -0.2500000  -0.7500000), wk =   0.0000000
        k(   29) = (   0.0000000   0.5000000  -0.5000000), wk =   0.1250000
        k(   30) = (   0.0000000   1.0000000  -0.5000000), wk =   0.0000000
        k(   31) = (   0.0000000  -0.5000000  -0.5000000), wk =   0.1250000
        k(   32) = (   0.0000000   0.0000000  -0.5000000), wk =   0.0000000
        k(   33) = (  -1.0000000   0.0000000   0.0000000), wk =   0.0625000
        k(   34) = (  -1.0000000   0.5000000   0.0000000), wk =   0.0000000
        k(   35) = (  -1.0000000  -0.5000000   0.0000000), wk =   0.0625000
        k(   36) = (  -1.0000000   0.0000000   0.0000000), wk =   0.0000000

     Dense  grid:     4111 G-vectors     FFT dimensions: (  24,  24,  24)

     Estimated max dynamical RAM per process >       0.54 MB

     Estimated total dynamical RAM >       2.16 MB

     The potential is recalculated from file :
     ./tmp/_ph0/silicon.save/charge-density

     Starting wfcs are    8 atomic wfcs

     Band Structure Calculation
     Davidson diagonalization with overlap

     ethr =  1.25E-10,  avg # of iterations =  9.7

     total cpu time spent up to now is        2.6 secs

     End of band structure calculation

          k = 0.0000 0.0000 0.0000 (   531 PWs)   bands (ev):

    -5.7223   6.5742   6.5742   6.5742

          k = 0.0000 0.5000 0.0000 (   504 PWs)   bands (ev):

    -4.5945   3.0517   4.5932   4.5932

          k =-0.2500 0.2500-0.2500 (   516 PWs)   bands (ev):

    -4.8873   2.5377   5.7851   5.7851

          k =-0.2500 0.7500-0.2500 (   510 PWs)   bands (ev):

    -2.8746   0.0484   2.8602   4.2709

          k = 0.5000-0.5000 0.5000 (   502 PWs)   bands (ev):

    -3.2592  -0.6509   5.3377   5.3377

          k = 0.5000 0.0000 0.5000 (   512 PWs)   bands (ev):

    -3.5836   0.9950   2.6094   5.1943

          k = 0.0000 0.5000 0.0000 (   504 PWs)   bands (ev):

    -4.5945   3.0517   4.5932   4.5932

          k = 0.0000 1.0000 0.0000 (   524 PWs)   bands (ev):

    -1.4019  -1.4019   3.5941   3.5941

          k = 0.7500-0.2500 0.7500 (   510 PWs)   bands (ev):

    -2.8746   0.0484   2.8602   4.2709

          k = 0.7500 0.2500 0.7500 (   510 PWs)   bands (ev):

    -2.8746   0.0484   2.8602   4.2709

          k = 0.5000 0.0000 0.5000 (   512 PWs)   bands (ev):

    -3.5836   0.9950   2.6094   5.1943

          k = 0.5000 0.5000 0.5000 (   502 PWs)   bands (ev):

    -3.2592  -0.6509   5.3377   5.3377

          k = 0.0000-1.0000 0.0000 (   524 PWs)   bands (ev):

    -1.4019  -1.4019   3.5941   3.5941

          k = 0.0000-0.5000 0.0000 (   504 PWs)   bands (ev):

    -4.5945   3.0517   4.5932   4.5932

          k =-0.5000-1.0000 0.0000 (   516 PWs)   bands (ev):

    -1.2112  -1.2112   2.4893   2.4893

          k =-0.5000-0.5000 0.0000 (   512 PWs)   bands (ev):

    -3.5836   0.9950   2.6094   5.1943

          k = 0.2500-0.2500 0.2500 (   516 PWs)   bands (ev):

    -4.8873   2.5377   5.7851   5.7851

          k = 0.2500 0.2500 0.2500 (   516 PWs)   bands (ev):

    -4.8873   2.5377   5.7851   5.7851

          k = 0.0000-0.5000 0.0000 (   504 PWs)   bands (ev):

    -4.5945   3.0517   4.5932   4.5932

          k = 0.0000 0.0000 0.0000 (   531 PWs)   bands (ev):

    -5.7223   6.5742   6.5742   6.5742

          k = 0.5000 0.0000 0.0000 (   504 PWs)   bands (ev):

    -4.5945   3.0517   4.5932   4.5932

          k = 0.5000 0.5000 0.0000 (   512 PWs)   bands (ev):

    -3.5836   0.9950   2.6094   5.1943

          k =-0.7500 0.2500-0.7500 (   510 PWs)   bands (ev):

    -2.8746   0.0484   2.8602   4.2709

          k =-0.7500 0.7500-0.7500 (   516 PWs)   bands (ev):

    -4.8873   2.5377   5.7851   5.7851

          k =-0.2500 0.7500-0.7500 (   510 PWs)   bands (ev):

    -2.8746   0.0484   2.8602   4.2709

          k =-0.2500 1.2500-0.7500 (   510 PWs)   bands (ev):

    -2.8746   0.0484   2.8602   4.2709

          k =-0.2500-0.7500-0.7500 (   510 PWs)   bands (ev):

    -2.8746   0.0484   2.8602   4.2709

          k =-0.2500-0.2500-0.7500 (   510 PWs)   bands (ev):

    -2.8746   0.0484   2.8602   4.2709

          k = 0.0000 0.5000-0.5000 (   512 PWs)   bands (ev):

    -3.5836   0.9950   2.6094   5.1943

          k = 0.0000 1.0000-0.5000 (   516 PWs)   bands (ev):

    -1.2112  -1.2112   2.4893   2.4893

          k = 0.0000-0.5000-0.5000 (   512 PWs)   bands (ev):

    -3.5836   0.9950   2.6094   5.1943

          k = 0.0000 0.0000-0.5000 (   504 PWs)   bands (ev):

    -4.5945   3.0517   4.5932   4.5932

          k =-1.0000 0.0000 0.0000 (   524 PWs)   bands (ev):

    -1.4019  -1.4019   3.5941   3.5941

          k =-1.0000 0.5000 0.0000 (   516 PWs)   bands (ev):

    -1.2112  -1.2112   2.4893   2.4893

          k =-1.0000-0.5000 0.0000 (   516 PWs)   bands (ev):

    -1.2112  -1.2112   2.4893   2.4893

          k =-1.0000 0.0000 0.0000 (   524 PWs)   bands (ev):

    -1.4019  -1.4019   3.5941   3.5941

     highest occupied level (ev):     6.5742

     Writing output data file ./tmp/_ph0/silicon.save/

     Ph                                                                         

     bravais-lattice index     =            2
     lattice parameter (alat)  =      10.1000  a.u.
     unit-cell volume          =     257.5752 (a.u.)^3
     number of atoms/cell      =            2
     number of atomic types    =            1
     kinetic-energy cut-off    =      24.0000  Ry
     charge density cut-off    =      96.0000  Ry
     convergence threshold     =      1.0E-16
     beta                      =       0.7000
     number of iterations used =            4
     Exchange-correlation= PZ
                           (   1   1   0   0   0   0   0)


     celldm(1)=   10.10000  celldm(2)=    0.00000  celldm(3)=    0.00000
     celldm(4)=    0.00000  celldm(5)=    0.00000  celldm(6)=    0.00000

     crystal axes: (cart. coord. in units of alat)
               a(1) = ( -0.5000  0.0000  0.5000 )  
               a(2) = (  0.0000  0.5000  0.5000 )  
               a(3) = ( -0.5000  0.5000  0.0000 )  

     reciprocal axes: (cart. coord. in units 2 pi/alat)
               b(1) = ( -1.0000 -1.0000  1.0000 )  
               b(2) = (  1.0000  1.0000  1.0000 )  
               b(3) = ( -1.0000  1.0000 -1.0000 )  


     Atoms inside the unit cell: 

     Cartesian axes

     site n.  atom      mass           positions (alat units)
        1     Si  28.0860   tau(    1) = (    0.00000    0.00000    0.00000  )
        2     Si  28.0860   tau(    2) = (    0.25000    0.25000    0.25000  )

     Computing dynamical matrix for 
                    q = (   0.0000000   0.5000000   0.0000000 )

      8 Sym.Ops. (no q -> -q+G )


     G cutoff =  248.0586  (   1028 G-vectors)     FFT grid: ( 24, 24, 24)
     number of k points=    36

     PseudoPot. # 1 for Si read from file:
     ../Si.pz-rrkj.UPF
     MD5 check sum: 884b380b739b48e9cd334294cddc9a8d
     Pseudo is Norm-conserving, Zval =  4.0
     Generated using "atomic" code by A. Dal Corso (espresso distribution)
     Using radial grid of 1141 points,  2 beta functions with: 
                l(1) =   0
                l(2) =   1

     Mode symmetry, C_4v (4mm)  point group:


     Atomic displacements:
     There are    4 irreducible representations

     Representation     1      1 modes -  To be done

     Representation     2      1 modes -  To be done

     Representation     3      2 modes -  To be done

     Representation     4      2 modes -  To be done



     Alpha used in Ewald sum =   1.0000
     PHONON       :     28.90s CPU     37.34s WALL



     Representation #   1 mode #   1

     Self-consistent Calculation

      iter #   1 total cpu time :    37.8 secs   av.it.:   5.7
      thresh= 1.000E-02 alpha_mix =  0.700 |ddv_scf|^2 =  1.760E-03

      iter #   2 total cpu time :    38.1 secs   av.it.:   7.5
      thresh= 4.195E-03 alpha_mix =  0.700 |ddv_scf|^2 =  2.105E-02

      iter #   3 total cpu time :    38.3 secs   av.it.:   6.4
      thresh= 1.000E-02 alpha_mix =  0.700 |ddv_scf|^2 =  1.908E-08

      iter #   4 total cpu time :    38.6 secs   av.it.:   8.3
      thresh= 1.381E-05 alpha_mix =  0.700 |ddv_scf|^2 =  1.183E-09

      iter #   5 total cpu time :    38.9 secs   av.it.:   7.9
      thresh= 3.440E-06 alpha_mix =  0.700 |ddv_scf|^2 =  2.733E-11

      iter #   6 total cpu time :    39.2 secs   av.it.:   7.3
      thresh= 5.228E-07 alpha_mix =  0.700 |ddv_scf|^2 =  9.128E-13

      iter #   7 total cpu time :    39.4 secs   av.it.:   6.5
      thresh= 9.554E-08 alpha_mix =  0.700 |ddv_scf|^2 =  4.064E-15

      iter #   8 total cpu time :    39.6 secs   av.it.:   7.4
      thresh= 6.375E-09 alpha_mix =  0.700 |ddv_scf|^2 =  3.793E-18

     End of self-consistent calculation

     Convergence has been achieved 


     Representation #   2 mode #   2

     Self-consistent Calculation

      iter #   1 total cpu time :    39.8 secs   av.it.:   5.3
      thresh= 1.000E-02 alpha_mix =  0.700 |ddv_scf|^2 =  3.285E-06

      iter #   2 total cpu time :    40.1 secs   av.it.:   8.3
      thresh= 1.812E-04 alpha_mix =  0.700 |ddv_scf|^2 =  7.002E-07

      iter #   3 total cpu time :    40.4 secs   av.it.:   8.1
      thresh= 8.368E-05 alpha_mix =  0.700 |ddv_scf|^2 =  2.715E-09

      iter #   4 total cpu time :    40.6 secs   av.it.:   8.2
      thresh= 5.210E-06 alpha_mix =  0.700 |ddv_scf|^2 =  8.366E-11

      iter #   5 total cpu time :    40.9 secs   av.it.:   7.7
      thresh= 9.147E-07 alpha_mix =  0.700 |ddv_scf|^2 =  1.207E-12

      iter #   6 total cpu time :    41.1 secs   av.it.:   7.5
      thresh= 1.099E-07 alpha_mix =  0.700 |ddv_scf|^2 =  6.724E-16

      iter #   7 total cpu time :    41.4 secs   av.it.:   8.4
      thresh= 2.593E-09 alpha_mix =  0.700 |ddv_scf|^2 =  2.187E-17

     End of self-consistent calculation

     Convergence has been achieved 


     Representation #   3 modes #   3   4

     Self-consistent Calculation

      iter #   1 total cpu time :    41.8 secs   av.it.:   5.5
      thresh= 1.000E-02 alpha_mix =  0.700 |ddv_scf|^2 =  7.804E-07

      iter #   2 total cpu time :    42.4 secs   av.it.:   9.4
      thresh= 8.834E-05 alpha_mix =  0.700 |ddv_scf|^2 =  1.328E-07

      iter #   3 total cpu time :    43.0 secs   av.it.:   8.9
      thresh= 3.644E-05 alpha_mix =  0.700 |ddv_scf|^2 =  1.236E-10

      iter #   4 total cpu time :    43.6 secs   av.it.:   8.8
      thresh= 1.112E-06 alpha_mix =  0.700 |ddv_scf|^2 =  5.906E-12

      iter #   5 total cpu time :    44.1 secs   av.it.:   8.6
      thresh= 2.430E-07 alpha_mix =  0.700 |ddv_scf|^2 =  5.623E-15

      iter #   6 total cpu time :    44.7 secs   av.it.:   9.6
      thresh= 7.499E-09 alpha_mix =  0.700 |ddv_scf|^2 =  2.032E-17

     End of self-consistent calculation

     Convergence has been achieved 


     Representation #   4 modes #   5   6

     Self-consistent Calculation

      iter #   1 total cpu time :    45.1 secs   av.it.:   5.4
      thresh= 1.000E-02 alpha_mix =  0.700 |ddv_scf|^2 =  5.148E-07

      iter #   2 total cpu time :    45.6 secs   av.it.:   9.2
      thresh= 7.175E-05 alpha_mix =  0.700 |ddv_scf|^2 =  8.545E-08

      iter #   3 total cpu time :    46.1 secs   av.it.:   8.9
      thresh= 2.923E-05 alpha_mix =  0.700 |ddv_scf|^2 =  1.305E-10

      iter #   4 total cpu time :    46.6 secs   av.it.:   8.7
      thresh= 1.142E-06 alpha_mix =  0.700 |ddv_scf|^2 =  6.686E-12

      iter #   5 total cpu time :    47.2 secs   av.it.:   8.5
      thresh= 2.586E-07 alpha_mix =  0.700 |ddv_scf|^2 =  6.796E-15

      iter #   6 total cpu time :    47.7 secs   av.it.:   9.5
      thresh= 8.244E-09 alpha_mix =  0.700 |ddv_scf|^2 =  2.361E-17

     End of self-consistent calculation

     Convergence has been achieved 

     Number of q in the star =    6
     List of q in the star:
          1   0.000000000   0.500000000   0.000000000
          2   0.000000000  -0.500000000   0.000000000
          3   0.500000000   0.000000000   0.000000000
          4   0.000000000   0.000000000   0.500000000
          5   0.000000000   0.000000000  -0.500000000
          6  -0.500000000   0.000000000   0.000000000

     Diagonalizing the dynamical matrix

     q = (    0.000000000   0.500000000   0.000000000 ) 

 **************************************************************************
     freq (    1) =       3.684856 [THz] =     122.913569 [cm-1]
     freq (    2) =       3.684856 [THz] =     122.913569 [cm-1]
     freq (    3) =       7.385683 [THz] =     246.359872 [cm-1]
     freq (    4) =      14.696368 [THz] =     490.218058 [cm-1]
     freq (    5) =      14.696368 [THz] =     490.218058 [cm-1]
     freq (    6) =      15.306133 [THz] =     510.557644 [cm-1]
 **************************************************************************

     Mode symmetry, C_4v (4mm)  point group:

     freq (   1-   2) =        122.9  [cm-1]   --> E    G_5 D_5       
     freq (   3-   3) =        246.4  [cm-1]   --> A_1  G_1 D_1       
     freq (   4-   5) =        490.2  [cm-1]   --> E    G_5 D_5       
     freq (   6-   6) =        510.6  [cm-1]   --> B_2  G_4 D_2'      

     Calculation of q =    0.7500000  -0.2500000   0.7500000

     Parallelization info
     --------------------
     sticks:   dense  smooth     PW     G-vecs:    dense   smooth      PW
     Min          87      87     34                 1027     1027     266
     Max          88      88     35                 1028     1028     267
     Sum         349     349    139                 4111     4111    1067

     Using Slab Decomposition


     Title: 
     Ph                                                                         


     bravais-lattice index     =            2
     lattice parameter (alat)  =      10.1000  a.u.
     unit-cell volume          =     257.5752 (a.u.)^3
     number of atoms/cell      =            2
     number of atomic types    =            1
     number of electrons       =         8.00
     number of Kohn-Sham states=            4
     kinetic-energy cutoff     =      24.0000  Ry
     charge density cutoff     =      96.0000  Ry
     Exchange-correlation= PZ
                           (   1   1   0   0   0   0   0)

     celldm(1)=  10.100000  celldm(2)=   0.000000  celldm(3)=   0.000000
     celldm(4)=   0.000000  celldm(5)=   0.000000  celldm(6)=   0.000000

     crystal axes: (cart. coord. in units of alat)
               a(1) = (  -0.500000   0.000000   0.500000 )  
               a(2) = (   0.000000   0.500000   0.500000 )  
               a(3) = (  -0.500000   0.500000   0.000000 )  

     reciprocal axes: (cart. coord. in units 2 pi/alat)
               b(1) = ( -1.000000 -1.000000  1.000000 )  
               b(2) = (  1.000000  1.000000  1.000000 )  
               b(3) = ( -1.000000  1.000000 -1.000000 )  


     PseudoPot. # 1 for Si read from file:
     ../Si.pz-rrkj.UPF
     MD5 check sum: 884b380b739b48e9cd334294cddc9a8d
     Pseudo is Norm-conserving, Zval =  4.0
     Generated using "atomic" code by A. Dal Corso (espresso distribution)
     Using radial grid of 1141 points,  2 beta functions with: 
                l(1) =   0
                l(2) =   1

     atomic species   valence    mass     pseudopotential
        Si             4.00    28.08600     Si( 1.00)

     48 Sym. Ops., with inversion, found



   Cartesian axes

     site n.     atom                  positions (alat units)
         1           Si  tau(   1) = (   0.0000000   0.0000000   0.0000000  )
         2           Si  tau(   2) = (   0.2500000   0.2500000   0.2500000  )

     number of k points=    80
                       cart. coord. in units 2pi/alat
        k(    1) = (   0.0000000   0.0000000   0.0000000), wk =   0.0312500
        k(    2) = (   0.7500000  -0.2500000   0.7500000), wk =   0.0000000
        k(    3) = (  -0.2500000   0.2500000  -0.2500000), wk =   0.0312500
        k(    4) = (   0.5000000   0.0000000   0.5000000), wk =   0.0000000
        k(    5) = (   0.5000000  -0.5000000   0.5000000), wk =   0.0312500
        k(    6) = (   1.2500000  -0.7500000   1.2500000), wk =   0.0000000
        k(    7) = (   0.0000000   0.5000000   0.0000000), wk =   0.0312500
        k(    8) = (   0.7500000   0.2500000   0.7500000), wk =   0.0000000
        k(    9) = (   0.7500000  -0.2500000   0.7500000), wk =   0.0312500
        k(   10) = (   1.5000000  -0.5000000   1.5000000), wk =   0.0000000
        k(   11) = (   0.5000000   0.0000000   0.5000000), wk =   0.0312500
        k(   12) = (   1.2500000  -0.2500000   1.2500000), wk =   0.0000000
        k(   13) = (   0.0000000  -1.0000000   0.0000000), wk =   0.0312500
        k(   14) = (   0.7500000  -1.2500000   0.7500000), wk =   0.0000000
        k(   15) = (  -0.5000000  -1.0000000   0.0000000), wk =   0.0625000
        k(   16) = (   0.2500000  -1.2500000   0.7500000), wk =   0.0000000
        k(   17) = (  -0.2500000   0.2500000   0.2500000), wk =   0.0625000
        k(   18) = (   0.5000000   0.0000000   1.0000000), wk =   0.0000000
        k(   19) = (   0.2500000   0.2500000   0.2500000), wk =   0.0312500
        k(   20) = (   1.0000000   0.0000000   1.0000000), wk =   0.0000000
        k(   21) = (   0.2500000  -0.2500000   0.2500000), wk =   0.0312500
        k(   22) = (   1.0000000  -0.5000000   1.0000000), wk =   0.0000000
        k(   23) = (  -0.2500000  -0.2500000  -0.2500000), wk =   0.0312500
        k(   24) = (   0.5000000  -0.5000000   0.5000000), wk =   0.0000000
        k(   25) = (   0.2500000  -0.2500000  -0.2500000), wk =   0.0625000
        k(   26) = (   1.0000000  -0.5000000   0.5000000), wk =   0.0000000
        k(   27) = (   0.5000000  -0.5000000  -0.5000000), wk =   0.0625000
        k(   28) = (   1.2500000  -0.7500000   0.2500000), wk =   0.0000000
        k(   29) = (  -0.5000000  -0.5000000  -0.5000000), wk =   0.0312500
        k(   30) = (   0.2500000  -0.7500000   0.2500000), wk =   0.0000000
        k(   31) = (   0.0000000  -0.5000000   0.0000000), wk =   0.0312500
        k(   32) = (   0.7500000  -0.7500000   0.7500000), wk =   0.0000000
        k(   33) = (   0.5000000   0.0000000   0.0000000), wk =   0.0625000
        k(   34) = (   1.2500000  -0.2500000   0.7500000), wk =   0.0000000
        k(   35) = (   0.0000000   0.0000000  -0.5000000), wk =   0.0625000
        k(   36) = (   0.7500000  -0.2500000   0.2500000), wk =   0.0000000
        k(   37) = (   0.7500000  -0.2500000  -0.7500000), wk =   0.0625000
        k(   38) = (   1.5000000  -0.5000000   0.0000000), wk =   0.0000000
        k(   39) = (  -0.7500000  -0.2500000  -0.7500000), wk =   0.0312500
        k(   40) = (   0.0000000  -0.5000000   0.0000000), wk =   0.0000000
        k(   41) = (  -0.7500000   0.2500000  -0.7500000), wk =   0.0312500
        k(   42) = (   0.0000000   0.0000000   0.0000000), wk =   0.0000000
        k(   43) = (  -0.2500000   0.7500000  -0.7500000), wk =   0.0625000
        k(   44) = (   0.5000000   0.5000000   0.0000000), wk =   0.0000000
        k(   45) = (   0.7500000   0.2500000   0.7500000), wk =   0.0312500
        k(   46) = (   1.5000000   0.0000000   1.5000000), wk =   0.0000000
        k(   47) = (  -0.7500000   0.2500000   0.7500000), wk =   0.0625000
        k(   48) = (   0.0000000   0.0000000   1.5000000), wk =   0.0000000
        k(   49) = (  -0.7500000   0.7500000   0.2500000), wk =   0.0625000
        k(   50) = (   0.0000000   0.5000000   1.0000000), wk =   0.0000000
        k(   51) = (  -0.2500000   0.7500000   0.7500000), wk =   0.0625000
        k(   52) = (   0.5000000   0.5000000   1.5000000), wk =   0.0000000
        k(   53) = (  -0.2500000  -0.7500000  -0.7500000), wk =   0.0625000
        k(   54) = (   0.5000000  -1.0000000   0.0000000), wk =   0.0000000
        k(   55) = (   0.7500000  -0.7500000   0.2500000), wk =   0.0625000
        k(   56) = (   1.5000000  -1.0000000   1.0000000), wk =   0.0000000
        k(   57) = (  -0.7500000  -0.7500000   0.2500000), wk =   0.0625000
        k(   58) = (   0.0000000  -1.0000000   1.0000000), wk =   0.0000000
        k(   59) = (   0.2500000   0.7500000   0.7500000), wk =   0.0625000
        k(   60) = (   1.0000000   0.5000000   1.5000000), wk =   0.0000000
        k(   61) = (  -0.2500000  -0.7500000   0.7500000), wk =   0.0625000
        k(   62) = (   0.5000000  -1.0000000   1.5000000), wk =   0.0000000
        k(   63) = (   0.5000000   0.0000000  -0.5000000), wk =   0.0625000
        k(   64) = (   1.2500000  -0.2500000   0.2500000), wk =   0.0000000
        k(   65) = (  -0.5000000   0.0000000  -0.5000000), wk =   0.0312500
        k(   66) = (   0.2500000  -0.2500000   0.2500000), wk =   0.0000000
        k(   67) = (   0.0000000   0.5000000  -0.5000000), wk =   0.0625000
        k(   68) = (   0.7500000   0.2500000   0.2500000), wk =   0.0000000
        k(   69) = (   0.0000000   0.5000000   0.5000000), wk =   0.0625000
        k(   70) = (   0.7500000   0.2500000   1.2500000), wk =   0.0000000
        k(   71) = (   0.0000000  -0.5000000  -0.5000000), wk =   0.0625000
        k(   72) = (   0.7500000  -0.7500000   0.2500000), wk =   0.0000000
        k(   73) = (   0.5000000  -0.5000000   0.0000000), wk =   0.0625000
        k(   74) = (   1.2500000  -0.7500000   0.7500000), wk =   0.0000000
        k(   75) = (  -1.0000000   0.0000000   0.0000000), wk =   0.0625000
        k(   76) = (  -0.2500000  -0.2500000   0.7500000), wk =   0.0000000
        k(   77) = (   0.5000000  -1.0000000   0.0000000), wk =   0.0625000
        k(   78) = (   1.2500000  -1.2500000   0.7500000), wk =   0.0000000
        k(   79) = (  -1.0000000  -0.5000000   0.0000000), wk =   0.0625000
        k(   80) = (  -0.2500000  -0.7500000   0.7500000), wk =   0.0000000

     Dense  grid:     4111 G-vectors     FFT dimensions: (  24,  24,  24)

     Estimated max dynamical RAM per process >       0.54 MB

     Estimated total dynamical RAM >       2.17 MB

     The potential is recalculated from file :
     ./tmp/_ph0/silicon.save/charge-density

     Starting wfcs are    8 atomic wfcs

     Band Structure Calculation
     Davidson diagonalization with overlap

     ethr =  1.25E-10,  avg # of iterations =  9.8

     total cpu time spent up to now is        4.1 secs

     End of band structure calculation

          k = 0.0000 0.0000 0.0000 (   531 PWs)   bands (ev):

    -5.7223   6.5742   6.5742   6.5742

          k = 0.7500-0.2500 0.7500 (   510 PWs)   bands (ev):

    -2.8746   0.0484   2.8602   4.2709

          k =-0.2500 0.2500-0.2500 (   516 PWs)   bands (ev):

    -4.8873   2.5377   5.7851   5.7851

          k = 0.5000 0.0000 0.5000 (   512 PWs)   bands (ev):

    -3.5836   0.9950   2.6094   5.1943

          k = 0.5000-0.5000 0.5000 (   502 PWs)   bands (ev):

    -3.2592  -0.6509   5.3377   5.3377

          k = 1.2500-0.7500 1.2500 (   516 PWs)   bands (ev):

    -4.8873   2.5377   5.7851   5.7851

          k = 0.0000 0.5000 0.0000 (   504 PWs)   bands (ev):

    -4.5945   3.0517   4.5932   4.5932

          k = 0.7500 0.2500 0.7500 (   510 PWs)   bands (ev):

    -2.8746   0.0484   2.8602   4.2709

          k = 0.7500-0.2500 0.7500 (   510 PWs)   bands (ev):

    -2.8746   0.0484   2.8602   4.2709

          k = 1.5000-0.5000 1.5000 (   502 PWs)   bands (ev):

    -3.2592  -0.6509   5.3377   5.3377

          k = 0.5000 0.0000 0.5000 (   512 PWs)   bands (ev):

    -3.5836   0.9950   2.6094   5.1943

          k = 1.2500-0.2500 1.2500 (   510 PWs)   bands (ev):

    -2.8746   0.0484   2.8602   4.2709

          k = 0.0000-1.0000 0.0000 (   524 PWs)   bands (ev):

    -1.4019  -1.4019   3.5941   3.5941

          k = 0.7500-1.2500 0.7500 (   516 PWs)   bands (ev):

    -4.8873   2.5377   5.7851   5.7851

          k =-0.5000-1.0000 0.0000 (   516 PWs)   bands (ev):

    -1.2112  -1.2112   2.4893   2.4893

          k = 0.2500-1.2500 0.7500 (   510 PWs)   bands (ev):

    -2.8746   0.0484   2.8602   4.2709

          k =-0.2500 0.2500 0.2500 (   516 PWs)   bands (ev):

    -4.8873   2.5377   5.7851   5.7851

          k = 0.5000 0.0000 1.0000 (   516 PWs)   bands (ev):

    -1.2112  -1.2112   2.4893   2.4893

          k = 0.2500 0.2500 0.2500 (   516 PWs)   bands (ev):

    -4.8873   2.5377   5.7851   5.7851

          k = 1.0000 0.0000 1.0000 (   524 PWs)   bands (ev):

    -1.4019  -1.4019   3.5941   3.5941

          k = 0.2500-0.2500 0.2500 (   516 PWs)   bands (ev):

    -4.8873   2.5377   5.7851   5.7851

          k = 1.0000-0.5000 1.0000 (   504 PWs)   bands (ev):

    -4.5945   3.0517   4.5932   4.5932

          k =-0.2500-0.2500-0.2500 (   516 PWs)   bands (ev):

    -4.8873   2.5377   5.7851   5.7851

          k = 0.5000-0.5000 0.5000 (   502 PWs)   bands (ev):

    -3.2592  -0.6509   5.3377   5.3377

          k = 0.2500-0.2500-0.2500 (   516 PWs)   bands (ev):

    -4.8873   2.5377   5.7851   5.7851

          k = 1.0000-0.5000 0.5000 (   512 PWs)   bands (ev):

    -3.5836   0.9950   2.6094   5.1943

          k = 0.5000-0.5000-0.5000 (   502 PWs)   bands (ev):

    -3.2592  -0.6509   5.3377   5.3377

          k = 1.2500-0.7500 0.2500 (   510 PWs)   bands (ev):

    -2.8746   0.0484   2.8602   4.2709

          k =-0.5000-0.5000-0.5000 (   502 PWs)   bands (ev):

    -3.2592  -0.6509   5.3377   5.3377

          k = 0.2500-0.7500 0.2500 (   510 PWs)   bands (ev):

    -2.8746   0.0484   2.8602   4.2709

          k = 0.0000-0.5000 0.0000 (   504 PWs)   bands (ev):

    -4.5945   3.0517   4.5932   4.5932

          k = 0.7500-0.7500 0.7500 (   516 PWs)   bands (ev):

    -4.8873   2.5377   5.7851   5.7851

          k = 0.5000 0.0000 0.0000 (   504 PWs)   bands (ev):

    -4.5945   3.0517   4.5932   4.5932

          k = 1.2500-0.2500 0.7500 (   510 PWs)   bands (ev):

    -2.8746   0.0484   2.8602   4.2709

          k = 0.0000 0.0000-0.5000 (   504 PWs)   bands (ev):

    -4.5945   3.0517   4.5932   4.5932

          k = 0.7500-0.2500 0.2500 (   510 PWs)   bands (ev):

    -2.8746   0.0484   2.8602   4.2709

          k = 0.7500-0.2500-0.7500 (   510 PWs)   bands (ev):

    -2.8746   0.0484   2.8602   4.2709

          k = 1.5000-0.5000 0.0000 (   512 PWs)   bands (ev):

    -3.5836   0.9950   2.6094   5.1943

          k =-0.7500-0.2500-0.7500 (   510 PWs)   bands (ev):

    -2.8746   0.0484   2.8602   4.2709

          k = 0.0000-0.5000 0.0000 (   504 PWs)   bands (ev):

    -4.5945   3.0517   4.5932   4.5932

          k =-0.7500 0.2500-0.7500 (   510 PWs)   bands (ev):

    -2.8746   0.0484   2.8602   4.2709

          k = 0.0000 0.0000 0.0000 (   531 PWs)   bands (ev):

    -5.7223   6.5742   6.5742   6.5742

          k =-0.2500 0.7500-0.7500 (   510 PWs)   bands (ev):

    -2.8746   0.0484   2.8602   4.2709

          k = 0.5000 0.5000 0.0000 (   512 PWs)   bands (ev):

    -3.5836   0.9950   2.6094   5.1943

          k = 0.7500 0.2500 0.7500 (   510 PWs)   bands (ev):

    -2.8746   0.0484   2.8602   4.2709

          k = 1.5000 0.0000 1.5000 (   512 PWs)   bands (ev):

    -3.5836   0.9950   2.6094   5.1943

          k =-0.7500 0.2500 0.7500 (   510 PWs)   bands (ev):

    -2.8746   0.0484   2.8602   4.2709

          k = 0.0000 0.0000 1.5000 (   504 PWs)   bands (ev):

    -4.5945   3.0517   4.5932   4.5932

          k =-0.7500 0.7500 0.2500 (   510 PWs)   bands (ev):

    -2.8746   0.0484   2.8602   4.2709

          k = 0.0000 0.5000 1.0000 (   516 PWs)   bands (ev):

    -1.2112  -1.2112   2.4893   2.4893

          k =-0.2500 0.7500 0.7500 (   510 PWs)   bands (ev):

    -2.8746   0.0484   2.8602   4.2709

          k = 0.5000 0.5000 1.5000 (   502 PWs)   bands (ev):

    -3.2592  -0.6509   5.3377   5.3377

          k =-0.2500-0.7500-0.7500 (   510 PWs)   bands (ev):

    -2.8746   0.0484   2.8602   4.2709

          k = 0.5000-1.0000 0.0000 (   516 PWs)   bands (ev):

    -1.2112  -1.2112   2.4893   2.4893

          k = 0.7500-0.7500 0.2500 (   510 PWs)   bands (ev):

    -2.8746   0.0484   2.8602   4.2709

          k = 1.5000-1.0000 1.0000 (   504 PWs)   bands (ev):

    -4.5945   3.0517   4.5932   4.5932

          k =-0.7500-0.7500 0.2500 (   510 PWs)   bands (ev):

    -2.8746   0.0484   2.8602   4.2709

          k = 0.0000-1.0000 1.0000 (   524 PWs)   bands (ev):

    -1.4019  -1.4019   3.5941   3.5941

          k = 0.2500 0.7500 0.7500 (   510 PWs)   bands (ev):

    -2.8746   0.0484   2.8602   4.2709

          k = 1.0000 0.5000 1.5000 (   512 PWs)   bands (ev):

    -3.5836   0.9950   2.6094   5.1943

          k =-0.2500-0.7500 0.7500 (   510 PWs)   bands (ev):

    -2.8746   0.0484   2.8602   4.2709

          k = 0.5000-1.0000 1.5000 (   512 PWs)   bands (ev):

    -3.5836   0.9950   2.6094   5.1943

          k = 0.5000 0.0000-0.5000 (   512 PWs)   bands (ev):

    -3.5836   0.9950   2.6094   5.1943

          k = 1.2500-0.2500 0.2500 (   510 PWs)   bands (ev):

    -2.8746   0.0484   2.8602   4.2709

          k =-0.5000 0.0000-0.5000 (   512 PWs)   bands (ev):

[...]


     Title: 
     Ph                                                                         


     bravais-lattice index     =            2
     lattice parameter (alat)  =      10.1000  a.u.
     unit-cell volume          =     257.5752 (a.u.)^3
     number of atoms/cell      =            2
     number of atomic types    =            1
     number of electrons       =         8.00
     number of Kohn-Sham states=            4
     kinetic-energy cutoff     =      24.0000  Ry
     charge density cutoff     =      96.0000  Ry
     Exchange-correlation= PZ
                           (   1   1   0   0   0   0   0)

     celldm(1)=  10.100000  celldm(2)=   0.000000  celldm(3)=   0.000000
     celldm(4)=   0.000000  celldm(5)=   0.000000  celldm(6)=   0.000000

     crystal axes: (cart. coord. in units of alat)
               a(1) = (  -0.500000   0.000000   0.500000 )  
               a(2) = (   0.000000   0.500000   0.500000 )  
               a(3) = (  -0.500000   0.500000   0.000000 )  

     reciprocal axes: (cart. coord. in units 2 pi/alat)
               b(1) = ( -1.000000 -1.000000  1.000000 )  
               b(2) = (  1.000000  1.000000  1.000000 )  
               b(3) = ( -1.000000  1.000000 -1.000000 )  


     PseudoPot. # 1 for Si read from file:
     ../Si.pz-rrkj.UPF
     MD5 check sum: 884b380b739b48e9cd334294cddc9a8d
     Pseudo is Norm-conserving, Zval =  4.0
     Generated using "atomic" code by A. Dal Corso (espresso distribution)
     Using radial grid of 1141 points,  2 beta functions with: 
                l(1) =   0
                l(2) =   1

     atomic species   valence    mass     pseudopotential
        Si             4.00    28.08600     Si( 1.00)

     48 Sym. Ops., with inversion, found



   Cartesian axes

     site n.     atom                  positions (alat units)
         1           Si  tau(   1) = (   0.0000000   0.0000000   0.0000000  )
         2           Si  tau(   2) = (   0.2500000   0.2500000   0.2500000  )

     number of k points=    32
                       cart. coord. in units 2pi/alat
        k(    1) = (   0.0000000   0.0000000   0.0000000), wk =   0.0312500
        k(    2) = (  -0.5000000  -1.0000000   0.0000000), wk =   0.0000000
        k(    3) = (  -0.2500000   0.2500000  -0.2500000), wk =   0.2500000
        k(    4) = (  -0.7500000  -0.7500000  -0.2500000), wk =   0.0000000
        k(    5) = (   0.5000000  -0.5000000   0.5000000), wk =   0.1250000
        k(    6) = (   0.0000000  -1.5000000   0.5000000), wk =   0.0000000
        k(    7) = (   0.0000000   0.5000000   0.0000000), wk =   0.1250000
        k(    8) = (  -0.5000000  -0.5000000   0.0000000), wk =   0.0000000
        k(    9) = (   0.7500000  -0.2500000   0.7500000), wk =   0.2500000
        k(   10) = (   0.2500000  -1.2500000   0.7500000), wk =   0.0000000
        k(   11) = (   0.5000000   0.0000000   0.5000000), wk =   0.1250000
        k(   12) = (   0.0000000  -1.0000000   0.5000000), wk =   0.0000000
        k(   13) = (   0.0000000  -1.0000000   0.0000000), wk =   0.0625000
        k(   14) = (  -0.5000000  -2.0000000   0.0000000), wk =   0.0000000
        k(   15) = (  -0.5000000  -1.0000000   0.0000000), wk =   0.0312500
        k(   16) = (  -1.0000000  -2.0000000   0.0000000), wk =   0.0000000
        k(   17) = (   0.5000000   0.0000000   0.0000000), wk =   0.0625000
        k(   18) = (   0.0000000  -1.0000000   0.0000000), wk =   0.0000000
        k(   19) = (  -0.7500000   0.2500000  -0.7500000), wk =   0.2500000
        k(   20) = (  -1.2500000  -0.7500000  -0.7500000), wk =   0.0000000
        k(   21) = (  -0.2500000   0.7500000   0.7500000), wk =   0.2500000
        k(   22) = (  -0.7500000  -0.2500000   0.7500000), wk =   0.0000000
        k(   23) = (  -0.5000000   0.0000000  -0.5000000), wk =   0.1250000
        k(   24) = (  -1.0000000  -1.0000000  -0.5000000), wk =   0.0000000
        k(   25) = (   0.0000000   0.5000000   0.5000000), wk =   0.1250000
        k(   26) = (  -0.5000000  -0.5000000   0.5000000), wk =   0.0000000
        k(   27) = (  -1.0000000   0.0000000   0.0000000), wk =   0.0312500
        k(   28) = (  -1.5000000  -1.0000000   0.0000000), wk =   0.0000000
        k(   29) = (   0.0000000   1.0000000   0.5000000), wk =   0.1250000
        k(   30) = (  -0.5000000   0.0000000   0.5000000), wk =   0.0000000
        k(   31) = (   0.5000000   1.0000000   0.0000000), wk =   0.0312500
        k(   32) = (   0.0000000   0.0000000   0.0000000), wk =   0.0000000

     Dense  grid:     4111 G-vectors     FFT dimensions: (  24,  24,  24)

     Estimated max dynamical RAM per process >       0.54 MB

     Estimated total dynamical RAM >       2.17 MB

     The potential is recalculated from file :
     ./tmp/_ph0/silicon.save/charge-density

     Starting wfcs are    8 atomic wfcs

     Band Structure Calculation
     Davidson diagonalization with overlap

     ethr =  1.25E-10,  avg # of iterations =  9.4

     total cpu time spent up to now is        6.1 secs

     End of band structure calculation

          k = 0.0000 0.0000 0.0000 (   531 PWs)   bands (ev):

    -5.7223   6.5742   6.5742   6.5742

          k =-0.5000-1.0000 0.0000 (   516 PWs)   bands (ev):

    -1.2112  -1.2112   2.4893   2.4893

          k =-0.2500 0.2500-0.2500 (   516 PWs)   bands (ev):

    -4.8873   2.5377   5.7851   5.7851

          k =-0.7500-0.7500-0.2500 (   510 PWs)   bands (ev):

    -2.8746   0.0484   2.8602   4.2709

          k = 0.5000-0.5000 0.5000 (   502 PWs)   bands (ev):

    -3.2592  -0.6509   5.3377   5.3377

          k = 0.0000-1.5000 0.5000 (   512 PWs)   bands (ev):

    -3.5836   0.9950   2.6094   5.1943

          k = 0.0000 0.5000 0.0000 (   504 PWs)   bands (ev):

    -4.5945   3.0517   4.5932   4.5932

          k =-0.5000-0.5000 0.0000 (   512 PWs)   bands (ev):

    -3.5836   0.9950   2.6094   5.1943

          k = 0.7500-0.2500 0.7500 (   510 PWs)   bands (ev):

    -2.8746   0.0484   2.8602   4.2709

          k = 0.2500-1.2500 0.7500 (   510 PWs)   bands (ev):

    -2.8746   0.0484   2.8602   4.2709

          k = 0.5000 0.0000 0.5000 (   512 PWs)   bands (ev):

    -3.5836   0.9950   2.6094   5.1943

          k = 0.0000-1.0000 0.5000 (   516 PWs)   bands (ev):

    -1.2112  -1.2112   2.4893   2.4893

          k = 0.0000-1.0000 0.0000 (   524 PWs)   bands (ev):

    -1.4019  -1.4019   3.5941   3.5941

          k =-0.5000-2.0000 0.0000 (   504 PWs)   bands (ev):

    -4.5945   3.0517   4.5932   4.5932

          k =-0.5000-1.0000 0.0000 (   516 PWs)   bands (ev):

    -1.2112  -1.2112   2.4893   2.4893

          k =-1.0000-2.0000 0.0000 (   524 PWs)   bands (ev):

    -1.4019  -1.4019   3.5941   3.5941

          k = 0.5000 0.0000 0.0000 (   504 PWs)   bands (ev):

    -4.5945   3.0517   4.5932   4.5932

          k = 0.0000-1.0000 0.0000 (   524 PWs)   bands (ev):

    -1.4019  -1.4019   3.5941   3.5941

          k =-0.7500 0.2500-0.7500 (   510 PWs)   bands (ev):

    -2.8746   0.0484   2.8602   4.2709

          k =-1.2500-0.7500-0.7500 (   516 PWs)   bands (ev):

    -4.8873   2.5377   5.7851   5.7851

          k =-0.2500 0.7500 0.7500 (   510 PWs)   bands (ev):

    -2.8746   0.0484   2.8602   4.2709

          k =-0.7500-0.2500 0.7500 (   510 PWs)   bands (ev):

    -2.8746   0.0484   2.8602   4.2709

          k =-0.5000 0.0000-0.5000 (   512 PWs)   bands (ev):

    -3.5836   0.9950   2.6094   5.1943

          k =-1.0000-1.0000-0.5000 (   504 PWs)   bands (ev):

    -4.5945   3.0517   4.5932   4.5932

          k = 0.0000 0.5000 0.5000 (   512 PWs)   bands (ev):

    -3.5836   0.9950   2.6094   5.1943

          k =-0.5000-0.5000 0.5000 (   502 PWs)   bands (ev):

    -3.2592  -0.6509   5.3377   5.3377

          k =-1.0000 0.0000 0.0000 (   524 PWs)   bands (ev):

    -1.4019  -1.4019   3.5941   3.5941

          k =-1.5000-1.0000 0.0000 (   516 PWs)   bands (ev):

    -1.2112  -1.2112   2.4893   2.4893

          k = 0.0000 1.0000 0.5000 (   516 PWs)   bands (ev):

    -1.2112  -1.2112   2.4893   2.4893

          k =-0.5000 0.0000 0.5000 (   512 PWs)   bands (ev):

    -3.5836   0.9950   2.6094   5.1943

          k = 0.5000 1.0000 0.0000 (   516 PWs)   bands (ev):

    -1.2112  -1.2112   2.4893   2.4893

          k = 0.0000 0.0000 0.0000 (   531 PWs)   bands (ev):

    -5.7223   6.5742   6.5742   6.5742

     highest occupied level (ev):     6.5742

     Writing output data file ./tmp/_ph0/silicon.save/

     Ph                                                                         

     bravais-lattice index     =            2
     lattice parameter (alat)  =      10.1000  a.u.
     unit-cell volume          =     257.5752 (a.u.)^3
     number of atoms/cell      =            2
     number of atomic types    =            1
     kinetic-energy cut-off    =      24.0000  Ry
     charge density cut-off    =      96.0000  Ry
     convergence threshold     =      1.0E-16
     beta                      =       0.7000
     number of iterations used =            4
     Exchange-correlation= PZ
                           (   1   1   0   0   0   0   0)


     celldm(1)=   10.10000  celldm(2)=    0.00000  celldm(3)=    0.00000
     celldm(4)=    0.00000  celldm(5)=    0.00000  celldm(6)=    0.00000

     crystal axes: (cart. coord. in units of alat)
               a(1) = ( -0.5000  0.0000  0.5000 )  
               a(2) = (  0.0000  0.5000  0.5000 )  
               a(3) = ( -0.5000  0.5000  0.0000 )  

     reciprocal axes: (cart. coord. in units 2 pi/alat)
               b(1) = ( -1.0000 -1.0000  1.0000 )  
               b(2) = (  1.0000  1.0000  1.0000 )  
               b(3) = ( -1.0000  1.0000 -1.0000 )  


     Atoms inside the unit cell: 

     Cartesian axes

     site n.  atom      mass           positions (alat units)
        1     Si  28.0860   tau(    1) = (    0.00000    0.00000    0.00000  )
        2     Si  28.0860   tau(    2) = (    0.25000    0.25000    0.25000  )

     Computing dynamical matrix for 
                    q = (  -0.5000000  -1.0000000   0.0000000 )

      8 Sym.Ops. (no q -> -q+G )


     G cutoff =  248.0586  (   1028 G-vectors)     FFT grid: ( 24, 24, 24)
     number of k points=    32

     PseudoPot. # 1 for Si read from file:
     ../Si.pz-rrkj.UPF
     MD5 check sum: 884b380b739b48e9cd334294cddc9a8d
     Pseudo is Norm-conserving, Zval =  4.0
     Generated using "atomic" code by A. Dal Corso (espresso distribution)
     Using radial grid of 1141 points,  2 beta functions with: 
                l(1) =   0
                l(2) =   1


     Atomic displacements:
     There are    3 irreducible representations

     Representation     1      2 modes -  To be done

     Representation     2      2 modes -  To be done

     Representation     3      2 modes -  To be done



     Alpha used in Ewald sum =   1.0000
     PHONON       :   1m30.00s CPU   1m54.23s WALL



     Representation #   1 modes #   1   2

     Self-consistent Calculation

      iter #   1 total cpu time :   114.6 secs   av.it.:   5.7
      thresh= 1.000E-02 alpha_mix =  0.700 |ddv_scf|^2 =  6.129E-06

      iter #   2 total cpu time :   115.2 secs   av.it.:   9.1
      thresh= 2.476E-04 alpha_mix =  0.700 |ddv_scf|^2 =  7.371E-06

      iter #   3 total cpu time :   115.7 secs   av.it.:   8.5
      thresh= 2.715E-04 alpha_mix =  0.700 |ddv_scf|^2 =  7.397E-10

      iter #   4 total cpu time :   116.2 secs   av.it.:   8.7
      thresh= 2.720E-06 alpha_mix =  0.700 |ddv_scf|^2 =  2.512E-11

      iter #   5 total cpu time :   116.8 secs   av.it.:   8.4
      thresh= 5.012E-07 alpha_mix =  0.700 |ddv_scf|^2 =  5.629E-14

      iter #   6 total cpu time :   117.3 secs   av.it.:   8.3
      thresh= 2.372E-08 alpha_mix =  0.700 |ddv_scf|^2 =  1.116E-15

      iter #   7 total cpu time :   117.8 secs   av.it.:   8.8
      thresh= 3.341E-09 alpha_mix =  0.700 |ddv_scf|^2 =  1.497E-17

     End of self-consistent calculation

     Convergence has been achieved 


     Representation #   2 modes #   3   4

     Self-consistent Calculation

      iter #   1 total cpu time :   118.2 secs   av.it.:   5.6
      thresh= 1.000E-02 alpha_mix =  0.700 |ddv_scf|^2 =  3.162E-06

      iter #   2 total cpu time :   118.8 secs   av.it.:   9.2
      thresh= 1.778E-04 alpha_mix =  0.700 |ddv_scf|^2 =  2.224E-06

      iter #   3 total cpu time :   119.3 secs   av.it.:   8.5
      thresh= 1.491E-04 alpha_mix =  0.700 |ddv_scf|^2 =  2.052E-10

      iter #   4 total cpu time :   119.9 secs   av.it.:   8.6
      thresh= 1.432E-06 alpha_mix =  0.700 |ddv_scf|^2 =  1.305E-11

      iter #   5 total cpu time :   120.4 secs   av.it.:   8.6
      thresh= 3.612E-07 alpha_mix =  0.700 |ddv_scf|^2 =  2.093E-14

      iter #   6 total cpu time :   120.9 secs   av.it.:   9.2
      thresh= 1.447E-08 alpha_mix =  0.700 |ddv_scf|^2 =  2.322E-16

      iter #   7 total cpu time :   121.4 secs   av.it.:   9.3
      thresh= 1.524E-09 alpha_mix =  0.700 |ddv_scf|^2 =  1.679E-17

     End of self-consistent calculation

     Convergence has been achieved 


     Representation #   3 modes #   5   6

     Self-consistent Calculation

      iter #   1 total cpu time :   121.9 secs   av.it.:   5.8
      thresh= 1.000E-02 alpha_mix =  0.700 |ddv_scf|^2 =  3.833E-06

      iter #   2 total cpu time :   122.4 secs   av.it.:   9.2
      thresh= 1.958E-04 alpha_mix =  0.700 |ddv_scf|^2 =  2.769E-06

      iter #   3 total cpu time :   122.9 secs   av.it.:   8.6
      thresh= 1.664E-04 alpha_mix =  0.700 |ddv_scf|^2 =  1.861E-10

      iter #   4 total cpu time :   123.5 secs   av.it.:   8.9
      thresh= 1.364E-06 alpha_mix =  0.700 |ddv_scf|^2 =  2.193E-11

      iter #   5 total cpu time :   124.0 secs   av.it.:   8.6
      thresh= 4.683E-07 alpha_mix =  0.700 |ddv_scf|^2 =  1.113E-14

      iter #   6 total cpu time :   124.6 secs   av.it.:   9.2
      thresh= 1.055E-08 alpha_mix =  0.700 |ddv_scf|^2 =  2.220E-16

      iter #   7 total cpu time :   125.1 secs   av.it.:   9.3
      thresh= 1.490E-09 alpha_mix =  0.700 |ddv_scf|^2 =  1.406E-17

     End of self-consistent calculation

     Convergence has been achieved 

     Number of q in the star =    6
     List of q in the star:
          1  -0.500000000  -1.000000000   0.000000000
          2   0.000000000   1.000000000   0.500000000
          3   0.000000000  -1.000000000  -0.500000000
          4   0.500000000   1.000000000   0.000000000
          5  -1.000000000  -0.500000000   0.000000000
          6   0.000000000  -0.500000000  -1.000000000

     Diagonalizing the dynamical matrix

     q = (   -0.500000000  -1.000000000   0.000000000 ) 

 **************************************************************************
     freq (    1) =       6.265553 [THz] =     208.996352 [cm-1]
     freq (    2) =       6.265553 [THz] =     208.996352 [cm-1]
     freq (    3) =      10.858042 [THz] =     362.185280 [cm-1]
     freq (    4) =      10.858042 [THz] =     362.185280 [cm-1]
     freq (    5) =      14.241679 [THz] =     475.051289 [cm-1]
     freq (    6) =      14.241679 [THz] =     475.051289 [cm-1]
 **************************************************************************

     init_run     :      0.11s CPU      0.14s WALL (       7 calls)
     electrons    :      4.52s CPU      5.87s WALL (       7 calls)

     Called by init_run:
     wfcinit      :      0.00s CPU      0.00s WALL (       7 calls)
     potinit      :      0.01s CPU      0.01s WALL (       7 calls)
     hinit0       :      0.08s CPU      0.09s WALL (       7 calls)

     Called by electrons:
     c_bands      :      4.52s CPU      5.84s WALL (       7 calls)
     v_of_rho     :      0.00s CPU      0.00s WALL (       8 calls)

     Called by c_bands:
     init_us_2    :      0.20s CPU      0.23s WALL (    7411 calls)
     cegterg      :      3.75s CPU      4.85s WALL (     292 calls)

     Called by *egterg:
     cdiaghg      :      0.16s CPU      0.18s WALL (    3114 calls)
     h_psi        :     67.29s CPU     84.87s WALL (   75453 calls)
     g_psi        :      0.01s CPU      0.01s WALL (    2822 calls)

     Called by h_psi:
     h_psi:calbec :      5.01s CPU      6.55s WALL (   75453 calls)
     vloc_psi     :     61.02s CPU     76.82s WALL (   75453 calls)
     add_vuspsi   :      0.72s CPU      0.86s WALL (   75453 calls)

     General routines
     calbec       :      7.36s CPU      9.64s WALL (  152760 calls)
     fft          :      0.73s CPU      0.89s WALL (    1154 calls)
     ffts         :      0.20s CPU      0.24s WALL (    1164 calls)
     fftw         :     72.46s CPU     91.19s WALL (  663830 calls)
     davcio       :      0.74s CPU      0.91s WALL (   38002 calls)

     Parallel routines

     PHONON       :   1m38.96s CPU   2m 5.12s WALL

     INITIALIZATION: 
     phq_setup    :      0.19s CPU      0.22s WALL (       8 calls)
     phq_init     :      0.27s CPU      0.43s WALL (       8 calls)

     phq_init     :      0.27s CPU      0.43s WALL (       8 calls)
     init_vloc    :      0.01s CPU      0.01s WALL (       8 calls)
     init_us_1    :      0.06s CPU      0.07s WALL (       8 calls)

     DYNAMICAL MATRIX:
     dynmat0      :      0.06s CPU      0.08s WALL (       8 calls)
     phqscf       :     90.92s CPU    114.33s WALL (       8 calls)
     dynmatrix    :      0.04s CPU      0.04s WALL (       8 calls)

     phqscf       :     90.92s CPU    114.33s WALL (       8 calls)
     solve_linter :     90.64s CPU    113.89s WALL (      32 calls)
     drhodv       :      0.26s CPU      0.40s WALL (      32 calls)

     dynmat0      :      0.06s CPU      0.08s WALL (       8 calls)
     dynmat_us    :      0.04s CPU      0.07s WALL (       8 calls)
     d2ionq       :      0.01s CPU      0.01s WALL (       8 calls)

     dynmat_us    :      0.04s CPU      0.07s WALL (       8 calls)

     phqscf       :     90.92s CPU    114.33s WALL (       8 calls)
     solve_linter :     90.64s CPU    113.89s WALL (      32 calls)

     solve_linter :     90.64s CPU    113.89s WALL (      32 calls)
     dvqpsi_us    :      1.22s CPU      1.57s WALL (     972 calls)
     ortho        :      0.62s CPU      0.83s WALL (    7618 calls)
     cgsolve      :     72.52s CPU     91.38s WALL (    7618 calls)
     incdrhoscf   :      6.94s CPU      8.55s WALL (    7594 calls)
     vpsifft      :      6.86s CPU      8.53s WALL (    6526 calls)
     dv_of_drho   :      0.73s CPU      0.89s WALL (     374 calls)
     mix_pot      :      0.19s CPU      0.27s WALL (     261 calls)
     psymdvscf    :      1.80s CPU      2.21s WALL (     255 calls)

     dvqpsi_us    :      1.22s CPU      1.57s WALL (     972 calls)
     dvqpsi_us_on :      0.05s CPU      0.05s WALL (     972 calls)

     cgsolve      :     72.52s CPU     91.38s WALL (    7618 calls)
     ch_psi       :     69.71s CPU     87.78s WALL (   72047 calls)

     ch_psi       :     69.71s CPU     87.78s WALL (   72047 calls)
     h_psi        :     67.29s CPU     84.87s WALL (   75453 calls)
     last         :      5.48s CPU      6.96s WALL (   72047 calls)

     h_psi        :     67.29s CPU     84.87s WALL (   75453 calls)
     add_vuspsi   :      0.72s CPU      0.86s WALL (   75453 calls)

     incdrhoscf   :      6.94s CPU      8.55s WALL (    7594 calls)


      General routines
     calbec       :      7.36s CPU      9.64s WALL (  152760 calls)
     fft          :      0.73s CPU      0.89s WALL (    1154 calls)
     ffts         :      0.20s CPU      0.24s WALL (    1164 calls)
     fftw         :     72.46s CPU     91.19s WALL (  663830 calls)
     davcio       :      0.74s CPU      0.91s WALL (   38002 calls)
     write_rec    :      0.20s CPU      0.48s WALL (     293 calls)


     PHONON       :   1m38.96s CPU   2m 5.12s WALL


   This run was terminated on:  10:57: 3  19Apr2021            

=------------------------------------------------------------------------------=
   JOB DONE.
=------------------------------------------------------------------------------=
