
     Program PHONON v.6.4.1 starts on 25Jun2019 at 10:28:45 

     This program is part of the open-source Quantum ESPRESSO suite
     for quantum simulation of materials; please cite
         "P. Giannozzi et al., J. Phys.:Condens. Matter 21 395502 (2009);
         "P. Giannozzi et al., J. Phys.:Condens. Matter 29 465901 (2017);
          URL http://www.quantum-espresso.org", 
     in publications or presentations arising from this work. More details at
     http://www.quantum-espresso.org/quote

     Parallel version (MPI), running on     4 processors

     MPI processes distributed on     1 nodes
     R & G space division:  proc/nbgrp/npool/nimage =       4

     Reading data from directory:
     ./tmp/silicon.save/

     IMPORTANT: XC functional enforced from input :
     Exchange-correlation      = PZ ( 1  1  0  0 0 0)
     Any further DFT definition will be discarded
     Please, verify this is what you really want


     Parallelization info
     --------------------
     sticks:   dense  smooth     PW     G-vecs:    dense   smooth      PW
     Min          87      87     27                 1027     1027     186
     Max          88      88     28                 1028     1028     189
     Sum         349     349    109                 4111     4111     749



     Dynamical matrices for ( 4, 4, 4)  uniform grid of q-points
     (   8 q-points):
       N         xq(1)         xq(2)         xq(3) 
       1   0.000000000   0.000000000   0.000000000
       2  -0.250000000   0.250000000  -0.250000000
       3   0.500000000  -0.500000000   0.500000000
       4   0.000000000   0.500000000   0.000000000
       5   0.750000000  -0.250000000   0.750000000
       6   0.500000000   0.000000000   0.500000000
       7   0.000000000  -1.000000000   0.000000000
       8  -0.500000000  -1.000000000   0.000000000

     Calculation of q =    0.0000000   0.0000000   0.0000000

     Ph                                                                         

     bravais-lattice index     =            2
     lattice parameter (alat)  =      10.1000  a.u.
     unit-cell volume          =     257.5752 (a.u.)^3
     number of atoms/cell      =            2
     number of atomic types    =            1
     kinetic-energy cut-off    =      24.0000  Ry
     charge density cut-off    =      96.0000  Ry
     convergence threshold     =      1.0E-16
     beta                      =       0.7000
     number of iterations used =            4
     Exchange-correlation      = PZ ( 1  1  0  0 0 0)


     celldm(1)=   10.10000  celldm(2)=    0.00000  celldm(3)=    0.00000
     celldm(4)=    0.00000  celldm(5)=    0.00000  celldm(6)=    0.00000

     crystal axes: (cart. coord. in units of alat)
               a(1) = ( -0.5000  0.0000  0.5000 )  
               a(2) = (  0.0000  0.5000  0.5000 )  
               a(3) = ( -0.5000  0.5000  0.0000 )  

     reciprocal axes: (cart. coord. in units 2 pi/alat)
               b(1) = ( -1.0000 -1.0000  1.0000 )  
               b(2) = (  1.0000  1.0000  1.0000 )  
               b(3) = ( -1.0000  1.0000 -1.0000 )  


     Atoms inside the unit cell: 

     Cartesian axes

     site n.  atom      mass           positions (alat units)
        1     Si  28.0860   tau(    1) = (    0.00000    0.00000    0.00000  )
        2     Si  28.0860   tau(    2) = (    0.25000    0.25000    0.25000  )

     Computing dynamical matrix for 
                    q = (   0.0000000   0.0000000   0.0000000 )

     49 Sym.Ops. (with q -> -q+G )


     G cutoff =  248.0586  (   1028 G-vectors)     FFT grid: ( 24, 24, 24)
     number of k points=     8

     PseudoPot. # 1 for Si read from file:
     ../Si.pz-rrkj.UPF
     MD5 check sum: 884b380b739b48e9cd334294cddc9a8d
     Pseudo is Norm-conserving, Zval =  4.0
     Generated using "atomic" code by A. Dal Corso (espresso distribution)
     Using radial grid of 1141 points,  2 beta functions with: 
                l(1) =   0
                l(2) =   1

     Mode symmetry, O_h (m-3m)  point group:


     Electric field:
     Dielectric constant
     Born effective charges in two ways 


     Atomic displacements:
     There are   2 irreducible representations

     Representation     1      3 modes -T_2g G_25' G_5+  To be done

     Representation     2      3 modes -T_1u G_15  G_4-  To be done



     Alpha used in Ewald sum =   1.0000
     PHONON       :      0.32s CPU      0.32s WALL


     Electric Fields Calculation

      iter #   1 total cpu time :     0.8 secs   av.it.:   5.6
      thresh= 1.000E-02 alpha_mix =  0.700 |ddv_scf|^2 =  6.075E-07

      iter #   2 total cpu time :     1.0 secs   av.it.:   9.0
      thresh= 7.794E-05 alpha_mix =  0.700 |ddv_scf|^2 =  2.636E-08

      iter #   3 total cpu time :     1.2 secs   av.it.:   9.0
      thresh= 1.623E-05 alpha_mix =  0.700 |ddv_scf|^2 =  4.078E-10

      iter #   4 total cpu time :     1.5 secs   av.it.:   9.2
      thresh= 2.019E-06 alpha_mix =  0.700 |ddv_scf|^2 =  1.933E-12

      iter #   5 total cpu time :     1.7 secs   av.it.:   8.8
      thresh= 1.390E-07 alpha_mix =  0.700 |ddv_scf|^2 =  1.081E-15

      iter #   6 total cpu time :     2.0 secs   av.it.:   9.0
      thresh= 3.288E-09 alpha_mix =  0.700 |ddv_scf|^2 =  1.171E-17

     End of electric fields calculation

          Dielectric constant in cartesian axis 

          (      24.148810025       0.000000000      -0.000000000 )
          (       0.000000000      24.148810025       0.000000000 )
          (      -0.000000000       0.000000000      24.148810025 )

          Effective charges (d Force / dE) in cartesian axis

           atom      1   Si 
      Ex  (       -1.22876       -0.00000       -0.00000 )
      Ey  (       -0.00000       -1.22876        0.00000 )
      Ez  (       -0.00000        0.00000       -1.22876 )
           atom      2   Si 
      Ex  (       -1.22876        0.00000        0.00000 )
      Ey  (        0.00000       -1.22876        0.00000 )
      Ez  (       -0.00000        0.00000       -1.22876 )


     Representation #  1 modes #   1  2  3

     Self-consistent Calculation

      iter #   1 total cpu time :     2.3 secs   av.it.:   4.9
      thresh= 1.000E-02 alpha_mix =  0.700 |ddv_scf|^2 =  1.103E-07

      iter #   2 total cpu time :     2.6 secs   av.it.:   8.7
      thresh= 3.322E-05 alpha_mix =  0.700 |ddv_scf|^2 =  1.857E-09

      iter #   3 total cpu time :     2.8 secs   av.it.:   8.8
      thresh= 4.309E-06 alpha_mix =  0.700 |ddv_scf|^2 =  2.685E-11

      iter #   4 total cpu time :     3.1 secs   av.it.:   8.2
      thresh= 5.182E-07 alpha_mix =  0.700 |ddv_scf|^2 =  1.826E-14

      iter #   5 total cpu time :     3.4 secs   av.it.:   9.1
      thresh= 1.351E-08 alpha_mix =  0.700 |ddv_scf|^2 =  1.320E-16

      iter #   6 total cpu time :     3.7 secs   av.it.:   8.9
      thresh= 1.149E-09 alpha_mix =  0.700 |ddv_scf|^2 =  2.003E-18

     End of self-consistent calculation

     Convergence has been achieved 


     Representation #  2 modes #   4  5  6

     Self-consistent Calculation

      iter #   1 total cpu time :     4.0 secs   av.it.:   5.1
      thresh= 1.000E-02 alpha_mix =  0.700 |ddv_scf|^2 =  8.103E-08

      iter #   2 total cpu time :     4.3 secs   av.it.:   9.2
      thresh= 2.847E-05 alpha_mix =  0.700 |ddv_scf|^2 =  3.271E-09

      iter #   3 total cpu time :     4.5 secs   av.it.:   9.2
      thresh= 5.719E-06 alpha_mix =  0.700 |ddv_scf|^2 =  3.559E-11

      iter #   4 total cpu time :     4.8 secs   av.it.:   9.0
      thresh= 5.966E-07 alpha_mix =  0.700 |ddv_scf|^2 =  7.034E-14

      iter #   5 total cpu time :     5.1 secs   av.it.:   9.3
      thresh= 2.652E-08 alpha_mix =  0.700 |ddv_scf|^2 =  1.100E-15

      iter #   6 total cpu time :     5.4 secs   av.it.:   9.3
      thresh= 3.317E-09 alpha_mix =  0.700 |ddv_scf|^2 =  5.300E-19

     End of self-consistent calculation

     Convergence has been achieved 

     Number of q in the star =    1
     List of q in the star:
          1   0.000000000   0.000000000   0.000000000

          Dielectric constant in cartesian axis 

          (      24.148810025       0.000000000      -0.000000000 )
          (       0.000000000      24.148810025       0.000000000 )
          (      -0.000000000       0.000000000      24.148810025 )

          Effective charges (d Force / dE) in cartesian axis

           atom      1   Si 
      Ex  (       -1.22876       -0.00000       -0.00000 )
      Ey  (       -0.00000       -1.22876        0.00000 )
      Ez  (       -0.00000        0.00000       -1.22876 )
           atom      2   Si 
      Ex  (       -1.22876        0.00000        0.00000 )
      Ey  (        0.00000       -1.22876        0.00000 )
      Ez  (       -0.00000        0.00000       -1.22876 )

          Effective charges (d P / du) in cartesian axis 

           atom      1   Si 
      Px  (       -1.22876        0.00000        0.00000 )
      Py  (        0.00000       -1.22876       -0.00000 )
      Pz  (        0.00000       -0.00000       -1.22876 )
           atom      2   Si 
      Px  (       -1.22876       -0.00000       -0.00000 )
      Py  (       -0.00000       -1.22876        0.00000 )
      Pz  (       -0.00000        0.00000       -1.22876 )

     Diagonalizing the dynamical matrix

     q = (    0.000000000   0.000000000   0.000000000 ) 

 **************************************************************************
     freq (    1) =       0.126925 [THz] =       4.233749 [cm-1]
     freq (    2) =       0.126925 [THz] =       4.233749 [cm-1]
     freq (    3) =       0.126925 [THz] =       4.233749 [cm-1]
     freq (    4) =      15.969226 [THz] =     532.676026 [cm-1]
     freq (    5) =      15.969226 [THz] =     532.676026 [cm-1]
     freq (    6) =      15.969226 [THz] =     532.676026 [cm-1]
 **************************************************************************

     Mode symmetry, O_h (m-3m)  point group:

     freq (  1 -  3) =          4.2  [cm-1]   --> T_1u G_15  G_4- I  
     freq (  4 -  6) =        532.7  [cm-1]   --> T_2g G_25' G_5+ R  

     Calculation of q =   -0.2500000   0.2500000  -0.2500000

     Subspace diagonalization in iterative solution of the eigenvalue problem:
     a serial algorithm will be used


     Parallelization info
     --------------------
     sticks:   dense  smooth     PW     G-vecs:    dense   smooth      PW
     Min          87      87     30                 1027     1027     216
     Max          88      88     31                 1028     1028     218
     Sum         349     349    121                 4111     4111     869


     Title: 
     Ph                                                                         


     bravais-lattice index     =            2
     lattice parameter (alat)  =      10.1000  a.u.
     unit-cell volume          =     257.5752 (a.u.)^3
     number of atoms/cell      =            2
     number of atomic types    =            1
     number of electrons       =         8.00
     number of Kohn-Sham states=            4
     kinetic-energy cutoff     =      24.0000  Ry
     charge density cutoff     =      96.0000  Ry
     Exchange-correlation      = PZ ( 1  1  0  0 0 0)

     celldm(1)=  10.100000  celldm(2)=   0.000000  celldm(3)=   0.000000
     celldm(4)=   0.000000  celldm(5)=   0.000000  celldm(6)=   0.000000

     crystal axes: (cart. coord. in units of alat)
               a(1) = (  -0.500000   0.000000   0.500000 )  
               a(2) = (   0.000000   0.500000   0.500000 )  
               a(3) = (  -0.500000   0.500000   0.000000 )  

     reciprocal axes: (cart. coord. in units 2 pi/alat)
               b(1) = ( -1.000000 -1.000000  1.000000 )  
               b(2) = (  1.000000  1.000000  1.000000 )  
               b(3) = ( -1.000000  1.000000 -1.000000 )  


     PseudoPot. # 1 for Si read from file:
     ../Si.pz-rrkj.UPF
     MD5 check sum: 884b380b739b48e9cd334294cddc9a8d
     Pseudo is Norm-conserving, Zval =  4.0
     Generated using "atomic" code by A. Dal Corso (espresso distribution)
     Using radial grid of 1141 points,  2 beta functions with: 
                l(1) =   0
                l(2) =   1

     atomic species   valence    mass     pseudopotential
        Si             4.00    28.08600     Si( 1.00)

     48 Sym. Ops., with inversion, found



   Cartesian axes

     site n.     atom                  positions (alat units)
         1           Si  tau(   1) = (   0.0000000   0.0000000   0.0000000  )
         2           Si  tau(   2) = (   0.2500000   0.2500000   0.2500000  )

     number of k points=    40
                       cart. coord. in units 2pi/alat
        k(    1) = (   0.0000000   0.0000000   0.0000000), wk =   0.0312500
        k(    2) = (  -0.2500000   0.2500000  -0.2500000), wk =   0.0000000
        k(    3) = (  -0.2500000   0.2500000  -0.2500000), wk =   0.0312500
        k(    4) = (  -0.5000000   0.5000000  -0.5000000), wk =   0.0000000
        k(    5) = (   0.5000000  -0.5000000   0.5000000), wk =   0.0312500
        k(    6) = (   0.2500000  -0.2500000   0.2500000), wk =   0.0000000
        k(    7) = (   0.0000000   0.5000000   0.0000000), wk =   0.0937500
        k(    8) = (  -0.2500000   0.7500000  -0.2500000), wk =   0.0000000
        k(    9) = (   0.7500000  -0.2500000   0.7500000), wk =   0.0937500
        k(   10) = (   0.5000000   0.0000000   0.5000000), wk =   0.0000000
        k(   11) = (   0.5000000   0.0000000   0.5000000), wk =   0.0937500
        k(   12) = (   0.2500000   0.2500000   0.2500000), wk =   0.0000000
        k(   13) = (   0.0000000  -1.0000000   0.0000000), wk =   0.0937500
        k(   14) = (  -0.2500000  -0.7500000  -0.2500000), wk =   0.0000000
        k(   15) = (  -0.5000000  -1.0000000   0.0000000), wk =   0.1875000
        k(   16) = (  -0.7500000  -0.7500000  -0.2500000), wk =   0.0000000
        k(   17) = (   0.2500000  -0.2500000  -0.2500000), wk =   0.0937500
        k(   18) = (   0.0000000   0.0000000  -0.5000000), wk =   0.0000000
        k(   19) = (   0.2500000  -0.2500000   0.2500000), wk =   0.0312500
        k(   20) = (   0.0000000   0.0000000   0.0000000), wk =   0.0000000
        k(   21) = (  -0.2500000  -0.2500000  -0.2500000), wk =   0.0937500
        k(   22) = (  -0.5000000   0.0000000  -0.5000000), wk =   0.0000000
        k(   23) = (  -0.5000000   0.5000000   0.5000000), wk =   0.0937500
        k(   24) = (  -0.7500000   0.7500000   0.2500000), wk =   0.0000000
        k(   25) = (   0.0000000   0.0000000   0.5000000), wk =   0.0937500
        k(   26) = (  -0.2500000   0.2500000   0.2500000), wk =   0.0000000
        k(   27) = (  -0.7500000   0.7500000   0.2500000), wk =   0.0937500
        k(   28) = (  -1.0000000   1.0000000   0.0000000), wk =   0.0000000
        k(   29) = (  -0.7500000   0.7500000  -0.2500000), wk =   0.0937500
        k(   30) = (  -1.0000000   1.0000000  -0.5000000), wk =   0.0000000
        k(   31) = (  -0.7500000   0.2500000   0.7500000), wk =   0.1875000
        k(   32) = (  -1.0000000   0.5000000   0.5000000), wk =   0.0000000
        k(   33) = (   0.7500000   0.2500000   0.7500000), wk =   0.0937500
        k(   34) = (   0.5000000   0.5000000   0.5000000), wk =   0.0000000
        k(   35) = (   0.7500000  -0.2500000  -0.7500000), wk =   0.1875000
        k(   36) = (   0.5000000   0.0000000  -1.0000000), wk =   0.0000000
        k(   37) = (  -0.5000000   0.5000000   0.0000000), wk =   0.0937500
        k(   38) = (  -0.7500000   0.7500000  -0.2500000), wk =   0.0000000
        k(   39) = (  -0.5000000   0.0000000   0.5000000), wk =   0.1875000
        k(   40) = (  -0.7500000   0.2500000   0.2500000), wk =   0.0000000

     Dense  grid:     4111 G-vectors     FFT dimensions: (  24,  24,  24)

     Estimated max dynamical RAM per process >       0.58 MB

     Estimated total dynamical RAM >       2.32 MB

     The potential is recalculated from file :
     ./tmp/_ph0/silicon.save/charge-density

     Starting wfcs are    8 atomic wfcs

     Band Structure Calculation
     Davidson diagonalization with overlap

     ethr =  1.25E-10,  avg # of iterations =  9.8

     total cpu time spent up to now is        0.3 secs

     End of band structure calculation

          k = 0.0000 0.0000 0.0000 (   531 PWs)   bands (ev):

    -5.7223   6.5742   6.5742   6.5742

          k =-0.2500 0.2500-0.2500 (   516 PWs)   bands (ev):

    -4.8873   2.5377   5.7851   5.7851

          k =-0.2500 0.2500-0.2500 (   516 PWs)   bands (ev):

    -4.8873   2.5377   5.7851   5.7851

          k =-0.5000 0.5000-0.5000 (   502 PWs)   bands (ev):

    -3.2592  -0.6509   5.3377   5.3377

          k = 0.5000-0.5000 0.5000 (   502 PWs)   bands (ev):

    -3.2592  -0.6509   5.3377   5.3377

          k = 0.2500-0.2500 0.2500 (   516 PWs)   bands (ev):

    -4.8873   2.5377   5.7851   5.7851

          k = 0.0000 0.5000 0.0000 (   504 PWs)   bands (ev):

    -4.5945   3.0517   4.5932   4.5932

          k =-0.2500 0.7500-0.2500 (   510 PWs)   bands (ev):

    -2.8746   0.0484   2.8602   4.2709

          k = 0.7500-0.2500 0.7500 (   510 PWs)   bands (ev):

    -2.8746   0.0484   2.8602   4.2709

          k = 0.5000 0.0000 0.5000 (   512 PWs)   bands (ev):

    -3.5836   0.9950   2.6094   5.1943

          k = 0.5000 0.0000 0.5000 (   512 PWs)   bands (ev):

    -3.5836   0.9950   2.6094   5.1943

          k = 0.2500 0.2500 0.2500 (   516 PWs)   bands (ev):

    -4.8873   2.5377   5.7851   5.7851

          k = 0.0000-1.0000 0.0000 (   524 PWs)   bands (ev):

    -1.4019  -1.4019   3.5941   3.5941

          k =-0.2500-0.7500-0.2500 (   510 PWs)   bands (ev):

    -2.8746   0.0484   2.8602   4.2709

          k =-0.5000-1.0000 0.0000 (   516 PWs)   bands (ev):

    -1.2112  -1.2112   2.4893   2.4893

          k =-0.7500-0.7500-0.2500 (   510 PWs)   bands (ev):

    -2.8746   0.0484   2.8602   4.2709

          k = 0.2500-0.2500-0.2500 (   516 PWs)   bands (ev):

    -4.8873   2.5377   5.7851   5.7851

          k = 0.0000 0.0000-0.5000 (   504 PWs)   bands (ev):

    -4.5945   3.0517   4.5932   4.5932

          k = 0.2500-0.2500 0.2500 (   516 PWs)   bands (ev):

    -4.8873   2.5377   5.7851   5.7851

          k = 0.0000 0.0000 0.0000 (   531 PWs)   bands (ev):

    -5.7223   6.5742   6.5742   6.5742

          k =-0.2500-0.2500-0.2500 (   516 PWs)   bands (ev):

    -4.8873   2.5377   5.7851   5.7851

          k =-0.5000 0.0000-0.5000 (   512 PWs)   bands (ev):

    -3.5836   0.9950   2.6094   5.1943

          k =-0.5000 0.5000 0.5000 (   502 PWs)   bands (ev):

    -3.2592  -0.6509   5.3377   5.3377

          k =-0.7500 0.7500 0.2500 (   510 PWs)   bands (ev):

    -2.8746   0.0484   2.8602   4.2709

          k = 0.0000 0.0000 0.5000 (   504 PWs)   bands (ev):

    -4.5945   3.0517   4.5932   4.5932

          k =-0.2500 0.2500 0.2500 (   516 PWs)   bands (ev):

    -4.8873   2.5377   5.7851   5.7851

          k =-0.7500 0.7500 0.2500 (   510 PWs)   bands (ev):

    -2.8746   0.0484   2.8602   4.2709

          k =-1.0000 1.0000 0.0000 (   524 PWs)   bands (ev):

    -1.4019  -1.4019   3.5941   3.5941

          k =-0.7500 0.7500-0.2500 (   510 PWs)   bands (ev):

    -2.8746   0.0484   2.8602   4.2709

          k =-1.0000 1.0000-0.5000 (   504 PWs)   bands (ev):

    -4.5945   3.0517   4.5932   4.5932

          k =-0.7500 0.2500 0.7500 (   510 PWs)   bands (ev):

    -2.8746   0.0484   2.8602   4.2709

          k =-1.0000 0.5000 0.5000 (   512 PWs)   bands (ev):

    -3.5836   0.9950   2.6094   5.1943

          k = 0.7500 0.2500 0.7500 (   510 PWs)   bands (ev):

    -2.8746   0.0484   2.8602   4.2709

          k = 0.5000 0.5000 0.5000 (   502 PWs)   bands (ev):

    -3.2592  -0.6509   5.3377   5.3377

          k = 0.7500-0.2500-0.7500 (   510 PWs)   bands (ev):

    -2.8746   0.0484   2.8602   4.2709

          k = 0.5000 0.0000-1.0000 (   516 PWs)   bands (ev):

    -1.2112  -1.2112   2.4893   2.4893

          k =-0.5000 0.5000 0.0000 (   512 PWs)   bands (ev):

    -3.5836   0.9950   2.6094   5.1943

          k =-0.7500 0.7500-0.2500 (   510 PWs)   bands (ev):

    -2.8746   0.0484   2.8602   4.2709

          k =-0.5000 0.0000 0.5000 (   512 PWs)   bands (ev):

    -3.5836   0.9950   2.6094   5.1943

          k =-0.7500 0.2500 0.2500 (   510 PWs)   bands (ev):

    -2.8746   0.0484   2.8602   4.2709

     highest occupied level (ev):     6.5742

     Writing output data file silicon.save/

     Ph                                                                         

     bravais-lattice index     =            2
     lattice parameter (alat)  =      10.1000  a.u.
     unit-cell volume          =     257.5752 (a.u.)^3
     number of atoms/cell      =            2
     number of atomic types    =            1
     kinetic-energy cut-off    =      24.0000  Ry
     charge density cut-off    =      96.0000  Ry
     convergence threshold     =      1.0E-16
     beta                      =       0.7000
     number of iterations used =            4
     Exchange-correlation      = PZ ( 1  1  0  0 0 0)


     celldm(1)=   10.10000  celldm(2)=    0.00000  celldm(3)=    0.00000
     celldm(4)=    0.00000  celldm(5)=    0.00000  celldm(6)=    0.00000

     crystal axes: (cart. coord. in units of alat)
               a(1) = ( -0.5000  0.0000  0.5000 )  
               a(2) = (  0.0000  0.5000  0.5000 )  
               a(3) = ( -0.5000  0.5000  0.0000 )  

     reciprocal axes: (cart. coord. in units 2 pi/alat)
               b(1) = ( -1.0000 -1.0000  1.0000 )  
               b(2) = (  1.0000  1.0000  1.0000 )  
               b(3) = ( -1.0000  1.0000 -1.0000 )  


     Atoms inside the unit cell: 

     Cartesian axes

     site n.  atom      mass           positions (alat units)
        1     Si  28.0860   tau(    1) = (    0.00000    0.00000    0.00000  )
        2     Si  28.0860   tau(    2) = (    0.25000    0.25000    0.25000  )

     Computing dynamical matrix for 
                    q = (  -0.2500000   0.2500000  -0.2500000 )

      6 Sym.Ops. (no q -> -q+G )


     G cutoff =  248.0586  (   1028 G-vectors)     FFT grid: ( 24, 24, 24)
     number of k points=    40

     PseudoPot. # 1 for Si read from file:
     ../Si.pz-rrkj.UPF
     MD5 check sum: 884b380b739b48e9cd334294cddc9a8d
     Pseudo is Norm-conserving, Zval =  4.0
     Generated using "atomic" code by A. Dal Corso (espresso distribution)
     Using radial grid of 1141 points,  2 beta functions with: 
                l(1) =   0
                l(2) =   1

     Mode symmetry, C_3v (3m)   point group:


     Atomic displacements:
     There are   4 irreducible representations

     Representation     1      1 modes -A_1  L_1  To be done

     Representation     2      1 modes -A_1  L_1  To be done

     Representation     3      2 modes -E    L_3  To be done

     Representation     4      2 modes -E    L_3  To be done



     Alpha used in Ewald sum =   1.0000
     PHONON       :      4.91s CPU      5.76s WALL



     Representation #  1 mode #   1

     Self-consistent Calculation

      iter #   1 total cpu time :     5.9 secs   av.it.:   6.0
      thresh= 1.000E-02 alpha_mix =  0.700 |ddv_scf|^2 =  1.503E-03

      iter #   2 total cpu time :     6.0 secs   av.it.:   7.8
      thresh= 3.877E-03 alpha_mix =  0.700 |ddv_scf|^2 =  2.138E-02

      iter #   3 total cpu time :     6.1 secs   av.it.:   6.5
      thresh= 1.000E-02 alpha_mix =  0.700 |ddv_scf|^2 =  1.079E-06

      iter #   4 total cpu time :     6.3 secs   av.it.:   8.1
      thresh= 1.039E-04 alpha_mix =  0.700 |ddv_scf|^2 =  8.888E-08

      iter #   5 total cpu time :     6.5 secs   av.it.:   7.7
      thresh= 2.981E-05 alpha_mix =  0.700 |ddv_scf|^2 =  5.752E-10

      iter #   6 total cpu time :     6.6 secs   av.it.:   7.7
      thresh= 2.398E-06 alpha_mix =  0.700 |ddv_scf|^2 =  1.342E-09

      iter #   7 total cpu time :     6.7 secs   av.it.:   6.7
      thresh= 3.663E-06 alpha_mix =  0.700 |ddv_scf|^2 =  1.047E-11

      iter #   8 total cpu time :     6.9 secs   av.it.:   8.0
      thresh= 3.236E-07 alpha_mix =  0.700 |ddv_scf|^2 =  3.726E-13

      iter #   9 total cpu time :     7.0 secs   av.it.:   7.1
      thresh= 6.104E-08 alpha_mix =  0.700 |ddv_scf|^2 =  6.928E-15

      iter #  10 total cpu time :     7.1 secs   av.it.:   7.9
      thresh= 8.324E-09 alpha_mix =  0.700 |ddv_scf|^2 =  5.503E-15

      iter #  11 total cpu time :     7.2 secs   av.it.:   7.2
      thresh= 7.418E-09 alpha_mix =  0.700 |ddv_scf|^2 =  8.308E-17

     End of self-consistent calculation

     Convergence has been achieved 


     Representation #  2 mode #   2

     Self-consistent Calculation

      iter #   1 total cpu time :     7.4 secs   av.it.:   6.0
      thresh= 1.000E-02 alpha_mix =  0.700 |ddv_scf|^2 =  1.503E-03

      iter #   2 total cpu time :     7.5 secs   av.it.:   7.8
      thresh= 3.877E-03 alpha_mix =  0.700 |ddv_scf|^2 =  2.137E-02

      iter #   3 total cpu time :     7.6 secs   av.it.:   6.5
      thresh= 1.000E-02 alpha_mix =  0.700 |ddv_scf|^2 =  1.071E-06

      iter #   4 total cpu time :     7.7 secs   av.it.:   8.1
      thresh= 1.035E-04 alpha_mix =  0.700 |ddv_scf|^2 =  9.067E-08

      iter #   5 total cpu time :     7.9 secs   av.it.:   7.7
      thresh= 3.011E-05 alpha_mix =  0.700 |ddv_scf|^2 =  7.845E-10

      iter #   6 total cpu time :     8.0 secs   av.it.:   7.5
      thresh= 2.801E-06 alpha_mix =  0.700 |ddv_scf|^2 =  1.181E-09

      iter #   7 total cpu time :     8.1 secs   av.it.:   6.7
      thresh= 3.436E-06 alpha_mix =  0.700 |ddv_scf|^2 =  1.774E-11

      iter #   8 total cpu time :     8.2 secs   av.it.:   7.9
      thresh= 4.212E-07 alpha_mix =  0.700 |ddv_scf|^2 =  3.393E-13

      iter #   9 total cpu time :     8.4 secs   av.it.:   7.3
      thresh= 5.825E-08 alpha_mix =  0.700 |ddv_scf|^2 =  7.780E-15

      iter #  10 total cpu time :     8.5 secs   av.it.:   7.8
      thresh= 8.820E-09 alpha_mix =  0.700 |ddv_scf|^2 =  6.694E-15

      iter #  11 total cpu time :     8.6 secs   av.it.:   7.4
      thresh= 8.182E-09 alpha_mix =  0.700 |ddv_scf|^2 =  6.768E-17

     End of self-consistent calculation

     Convergence has been achieved 


     Representation #  3 modes #   3  4

     Self-consistent Calculation

      iter #   1 total cpu time :     8.8 secs   av.it.:   5.2
      thresh= 1.000E-02 alpha_mix =  0.700 |ddv_scf|^2 =  3.104E-07

      iter #   2 total cpu time :     9.1 secs   av.it.:   9.4
      thresh= 5.571E-05 alpha_mix =  0.700 |ddv_scf|^2 =  1.849E-08

      iter #   3 total cpu time :     9.4 secs   av.it.:   9.1
      thresh= 1.360E-05 alpha_mix =  0.700 |ddv_scf|^2 =  1.019E-10

      iter #   4 total cpu time :     9.7 secs   av.it.:   9.2
      thresh= 1.009E-06 alpha_mix =  0.700 |ddv_scf|^2 =  6.132E-12

      iter #   5 total cpu time :     9.9 secs   av.it.:   9.1
      thresh= 2.476E-07 alpha_mix =  0.700 |ddv_scf|^2 =  1.084E-14

      iter #   6 total cpu time :    10.2 secs   av.it.:   9.5
      thresh= 1.041E-08 alpha_mix =  0.700 |ddv_scf|^2 =  1.857E-16

      iter #   7 total cpu time :    10.5 secs   av.it.:   9.7
      thresh= 1.363E-09 alpha_mix =  0.700 |ddv_scf|^2 =  1.069E-18

     End of self-consistent calculation

     Convergence has been achieved 


     Representation #  4 modes #   5  6

     Self-consistent Calculation

      iter #   1 total cpu time :    10.8 secs   av.it.:   5.3
      thresh= 1.000E-02 alpha_mix =  0.700 |ddv_scf|^2 =  3.106E-07

      iter #   2 total cpu time :    11.1 secs   av.it.:   9.6
      thresh= 5.573E-05 alpha_mix =  0.700 |ddv_scf|^2 =  1.856E-08

      iter #   3 total cpu time :    11.4 secs   av.it.:   9.4
      thresh= 1.362E-05 alpha_mix =  0.700 |ddv_scf|^2 =  1.018E-10

      iter #   4 total cpu time :    11.7 secs   av.it.:   9.2
      thresh= 1.009E-06 alpha_mix =  0.700 |ddv_scf|^2 =  6.141E-12

      iter #   5 total cpu time :    12.0 secs   av.it.:   9.1
      thresh= 2.478E-07 alpha_mix =  0.700 |ddv_scf|^2 =  1.072E-14

      iter #   6 total cpu time :    12.3 secs   av.it.:   9.6
      thresh= 1.035E-08 alpha_mix =  0.700 |ddv_scf|^2 =  1.851E-16

      iter #   7 total cpu time :    12.7 secs   av.it.:   9.7
      thresh= 1.360E-09 alpha_mix =  0.700 |ddv_scf|^2 =  1.062E-18

     End of self-consistent calculation

     Convergence has been achieved 

     Number of q in the star =    8
     List of q in the star:
          1  -0.250000000   0.250000000  -0.250000000
          2   0.250000000  -0.250000000  -0.250000000
          3   0.250000000  -0.250000000   0.250000000
          4   0.250000000   0.250000000   0.250000000
          5  -0.250000000  -0.250000000  -0.250000000
          6  -0.250000000  -0.250000000   0.250000000
          7  -0.250000000   0.250000000   0.250000000
          8   0.250000000   0.250000000  -0.250000000

     Diagonalizing the dynamical matrix

     q = (   -0.250000000   0.250000000  -0.250000000 ) 

 **************************************************************************
     freq (    1) =       2.703961 [THz] =      90.194425 [cm-1]
     freq (    2) =       2.703961 [THz] =      90.194425 [cm-1]
     freq (    3) =       7.045467 [THz] =     235.011473 [cm-1]
     freq (    4) =      15.084519 [THz] =     503.165398 [cm-1]
     freq (    5) =      15.348822 [THz] =     511.981605 [cm-1]
     freq (    6) =      15.348822 [THz] =     511.981605 [cm-1]
 **************************************************************************

     Mode symmetry, C_3v (3m)   point group:

     freq (  1 -  2) =         90.2  [cm-1]   --> E    L_3           
     freq (  3 -  3) =        235.0  [cm-1]   --> A_1  L_1           
     freq (  4 -  4) =        503.2  [cm-1]   --> A_1  L_1           
     freq (  5 -  6) =        512.0  [cm-1]   --> E    L_3           

     Calculation of q =    0.5000000  -0.5000000   0.5000000

     Parallelization info
     --------------------
     sticks:   dense  smooth     PW     G-vecs:    dense   smooth      PW
     Min          87      87     30                 1027     1027     234
     Max          88      88     31                 1028     1028     238
     Sum         349     349    121                 4111     4111     941


     Title: 
     Ph                                                                         


     bravais-lattice index     =            2
     lattice parameter (alat)  =      10.1000  a.u.
     unit-cell volume          =     257.5752 (a.u.)^3
     number of atoms/cell      =            2
     number of atomic types    =            1
     number of electrons       =         8.00
     number of Kohn-Sham states=            4
     kinetic-energy cutoff     =      24.0000  Ry
     charge density cutoff     =      96.0000  Ry
     Exchange-correlation      = PZ ( 1  1  0  0 0 0)

     celldm(1)=  10.100000  celldm(2)=   0.000000  celldm(3)=   0.000000
     celldm(4)=   0.000000  celldm(5)=   0.000000  celldm(6)=   0.000000

     crystal axes: (cart. coord. in units of alat)
               a(1) = (  -0.500000   0.000000   0.500000 )  
               a(2) = (   0.000000   0.500000   0.500000 )  
               a(3) = (  -0.500000   0.500000   0.000000 )  

     reciprocal axes: (cart. coord. in units 2 pi/alat)
               b(1) = ( -1.000000 -1.000000  1.000000 )  
               b(2) = (  1.000000  1.000000  1.000000 )  
               b(3) = ( -1.000000  1.000000 -1.000000 )  


     PseudoPot. # 1 for Si read from file:
     ../Si.pz-rrkj.UPF
     MD5 check sum: 884b380b739b48e9cd334294cddc9a8d
     Pseudo is Norm-conserving, Zval =  4.0
     Generated using "atomic" code by A. Dal Corso (espresso distribution)
     Using radial grid of 1141 points,  2 beta functions with: 
                l(1) =   0
                l(2) =   1

     atomic species   valence    mass     pseudopotential
        Si             4.00    28.08600     Si( 1.00)

     48 Sym. Ops., with inversion, found



   Cartesian axes

     site n.     atom                  positions (alat units)
         1           Si  tau(   1) = (   0.0000000   0.0000000   0.0000000  )
         2           Si  tau(   2) = (   0.2500000   0.2500000   0.2500000  )

     number of k points=    26
                       cart. coord. in units 2pi/alat
        k(    1) = (   0.0000000   0.0000000   0.0000000), wk =   0.0312500
        k(    2) = (   0.5000000  -0.5000000   0.5000000), wk =   0.0000000
        k(    3) = (  -0.2500000   0.2500000  -0.2500000), wk =   0.0625000
        k(    4) = (   0.2500000  -0.2500000   0.2500000), wk =   0.0000000
        k(    5) = (   0.5000000  -0.5000000   0.5000000), wk =   0.0312500
        k(    6) = (   1.0000000  -1.0000000   1.0000000), wk =   0.0000000
        k(    7) = (   0.0000000   0.5000000   0.0000000), wk =   0.1875000
        k(    8) = (   0.5000000   0.0000000   0.5000000), wk =   0.0000000
        k(    9) = (   0.7500000  -0.2500000   0.7500000), wk =   0.1875000
        k(   10) = (   1.2500000  -0.7500000   1.2500000), wk =   0.0000000
        k(   11) = (   0.5000000   0.0000000   0.5000000), wk =   0.1875000
        k(   12) = (   1.0000000  -0.5000000   1.0000000), wk =   0.0000000
        k(   13) = (   0.0000000  -1.0000000   0.0000000), wk =   0.0937500
        k(   14) = (   0.5000000  -1.5000000   0.5000000), wk =   0.0000000
        k(   15) = (  -0.5000000  -1.0000000   0.0000000), wk =   0.1875000
        k(   16) = (   0.0000000  -1.5000000   0.5000000), wk =   0.0000000
        k(   17) = (  -0.2500000  -0.2500000  -0.2500000), wk =   0.1875000
        k(   18) = (   0.2500000  -0.7500000   0.2500000), wk =   0.0000000
        k(   19) = (   0.5000000   0.5000000   0.5000000), wk =   0.0937500
        k(   20) = (   1.0000000   0.0000000   1.0000000), wk =   0.0000000
        k(   21) = (   0.7500000   0.2500000   0.7500000), wk =   0.1875000
        k(   22) = (   1.2500000  -0.2500000   1.2500000), wk =   0.0000000
        k(   23) = (  -0.7500000   0.2500000   0.7500000), wk =   0.3750000
        k(   24) = (  -0.2500000  -0.2500000   1.2500000), wk =   0.0000000
        k(   25) = (  -0.5000000   0.0000000   0.5000000), wk =   0.1875000
        k(   26) = (   0.0000000  -0.5000000   1.0000000), wk =   0.0000000

     Dense  grid:     4111 G-vectors     FFT dimensions: (  24,  24,  24)

     Estimated max dynamical RAM per process >       0.58 MB

     Estimated total dynamical RAM >       2.34 MB

     The potential is recalculated from file :
     ./tmp/_ph0/silicon.save/charge-density

     Starting wfcs are    8 atomic wfcs

     Band Structure Calculation
     Davidson diagonalization with overlap

     ethr =  1.25E-10,  avg # of iterations =  9.5

     total cpu time spent up to now is        0.7 secs

     End of band structure calculation

          k = 0.0000 0.0000 0.0000 (   531 PWs)   bands (ev):

    -5.7223   6.5742   6.5742   6.5742

          k = 0.5000-0.5000 0.5000 (   502 PWs)   bands (ev):

    -3.2592  -0.6509   5.3377   5.3377

          k =-0.2500 0.2500-0.2500 (   516 PWs)   bands (ev):

    -4.8873   2.5377   5.7851   5.7851

          k = 0.2500-0.2500 0.2500 (   516 PWs)   bands (ev):

    -4.8873   2.5377   5.7851   5.7851

          k = 0.5000-0.5000 0.5000 (   502 PWs)   bands (ev):

    -3.2592  -0.6509   5.3377   5.3377

          k = 1.0000-1.0000 1.0000 (   531 PWs)   bands (ev):

    -5.7223   6.5742   6.5742   6.5742

          k = 0.0000 0.5000 0.0000 (   504 PWs)   bands (ev):

    -4.5945   3.0517   4.5932   4.5932

          k = 0.5000 0.0000 0.5000 (   512 PWs)   bands (ev):

    -3.5836   0.9950   2.6094   5.1943

          k = 0.7500-0.2500 0.7500 (   510 PWs)   bands (ev):

    -2.8746   0.0484   2.8602   4.2709

          k = 1.2500-0.7500 1.2500 (   516 PWs)   bands (ev):

    -4.8873   2.5377   5.7851   5.7851

          k = 0.5000 0.0000 0.5000 (   512 PWs)   bands (ev):

    -3.5836   0.9950   2.6094   5.1943

          k = 1.0000-0.5000 1.0000 (   504 PWs)   bands (ev):

    -4.5945   3.0517   4.5932   4.5932

          k = 0.0000-1.0000 0.0000 (   524 PWs)   bands (ev):

    -1.4019  -1.4019   3.5941   3.5941

          k = 0.5000-1.5000 0.5000 (   502 PWs)   bands (ev):

    -3.2592  -0.6509   5.3377   5.3377

          k =-0.5000-1.0000 0.0000 (   516 PWs)   bands (ev):

    -1.2112  -1.2112   2.4893   2.4893

          k = 0.0000-1.5000 0.5000 (   512 PWs)   bands (ev):

    -3.5836   0.9950   2.6094   5.1943

          k =-0.2500-0.2500-0.2500 (   516 PWs)   bands (ev):

    -4.8873   2.5377   5.7851   5.7851

          k = 0.2500-0.7500 0.2500 (   510 PWs)   bands (ev):

    -2.8746   0.0484   2.8602   4.2709

          k = 0.5000 0.5000 0.5000 (   502 PWs)   bands (ev):

    -3.2592  -0.6509   5.3377   5.3377

          k = 1.0000 0.0000 1.0000 (   524 PWs)   bands (ev):

    -1.4019  -1.4019   3.5941   3.5941

          k = 0.7500 0.2500 0.7500 (   510 PWs)   bands (ev):

    -2.8746   0.0484   2.8602   4.2709

          k = 1.2500-0.2500 1.2500 (   510 PWs)   bands (ev):

    -2.8746   0.0484   2.8602   4.2709

          k =-0.7500 0.2500 0.7500 (   510 PWs)   bands (ev):

    -2.8746   0.0484   2.8602   4.2709

          k =-0.2500-0.2500 1.2500 (   510 PWs)   bands (ev):

    -2.8746   0.0484   2.8602   4.2709

          k =-0.5000 0.0000 0.5000 (   512 PWs)   bands (ev):

    -3.5836   0.9950   2.6094   5.1943

          k = 0.0000-0.5000 1.0000 (   516 PWs)   bands (ev):

    -1.2112  -1.2112   2.4893   2.4893

     highest occupied level (ev):     6.5742

     Writing output data file silicon.save/

     Ph                                                                         

     bravais-lattice index     =            2
     lattice parameter (alat)  =      10.1000  a.u.
     unit-cell volume          =     257.5752 (a.u.)^3
     number of atoms/cell      =            2
     number of atomic types    =            1
     kinetic-energy cut-off    =      24.0000  Ry
     charge density cut-off    =      96.0000  Ry
     convergence threshold     =      1.0E-16
     beta                      =       0.7000
     number of iterations used =            4
     Exchange-correlation      = PZ ( 1  1  0  0 0 0)


     celldm(1)=   10.10000  celldm(2)=    0.00000  celldm(3)=    0.00000
     celldm(4)=    0.00000  celldm(5)=    0.00000  celldm(6)=    0.00000

     crystal axes: (cart. coord. in units of alat)
               a(1) = ( -0.5000  0.0000  0.5000 )  
               a(2) = (  0.0000  0.5000  0.5000 )  
               a(3) = ( -0.5000  0.5000  0.0000 )  

     reciprocal axes: (cart. coord. in units 2 pi/alat)
               b(1) = ( -1.0000 -1.0000  1.0000 )  
               b(2) = (  1.0000  1.0000  1.0000 )  
               b(3) = ( -1.0000  1.0000 -1.0000 )  


     Atoms inside the unit cell: 

     Cartesian axes

     site n.  atom      mass           positions (alat units)
        1     Si  28.0860   tau(    1) = (    0.00000    0.00000    0.00000  )
        2     Si  28.0860   tau(    2) = (    0.25000    0.25000    0.25000  )

     Computing dynamical matrix for 
                    q = (   0.5000000  -0.5000000   0.5000000 )

     13 Sym.Ops. (with q -> -q+G )


     G cutoff =  248.0586  (   1028 G-vectors)     FFT grid: ( 24, 24, 24)
     number of k points=    26

     PseudoPot. # 1 for Si read from file:
     ../Si.pz-rrkj.UPF
     MD5 check sum: 884b380b739b48e9cd334294cddc9a8d
     Pseudo is Norm-conserving, Zval =  4.0
     Generated using "atomic" code by A. Dal Corso (espresso distribution)
     Using radial grid of 1141 points,  2 beta functions with: 
                l(1) =   0
                l(2) =   1


     Atomic displacements:
     There are   4 irreducible representations

     Representation     1      1 modes -  To be done

     Representation     2      1 modes -  To be done

     Representation     3      2 modes -  To be done

     Representation     4      2 modes -  To be done



     Alpha used in Ewald sum =   1.0000
     PHONON       :     11.29s CPU     13.08s WALL



     Representation #  1 mode #   1

     Self-consistent Calculation

      iter #   1 total cpu time :    13.2 secs   av.it.:   4.8
      thresh= 1.000E-02 alpha_mix =  0.700 |ddv_scf|^2 =  1.377E-05

      iter #   2 total cpu time :    13.3 secs   av.it.:   7.8
      thresh= 3.710E-04 alpha_mix =  0.700 |ddv_scf|^2 =  1.075E-05

      iter #   3 total cpu time :    13.4 secs   av.it.:   7.2
      thresh= 3.278E-04 alpha_mix =  0.700 |ddv_scf|^2 =  1.196E-09

      iter #   4 total cpu time :    13.5 secs   av.it.:   7.2
      thresh= 3.458E-06 alpha_mix =  0.700 |ddv_scf|^2 =  2.137E-11

      iter #   5 total cpu time :    13.6 secs   av.it.:   7.0
      thresh= 4.622E-07 alpha_mix =  0.700 |ddv_scf|^2 =  1.121E-13

      iter #   6 total cpu time :    13.7 secs   av.it.:   7.1
      thresh= 3.349E-08 alpha_mix =  0.700 |ddv_scf|^2 =  2.430E-15

      iter #   7 total cpu time :    13.8 secs   av.it.:   7.4
      thresh= 4.929E-09 alpha_mix =  0.700 |ddv_scf|^2 =  5.753E-18

     End of self-consistent calculation

     Convergence has been achieved 


     Representation #  2 mode #   2

     Self-consistent Calculation

      iter #   1 total cpu time :    13.9 secs   av.it.:   5.8
      thresh= 1.000E-02 alpha_mix =  0.700 |ddv_scf|^2 =  2.491E-04

      iter #   2 total cpu time :    14.0 secs   av.it.:   8.2
      thresh= 1.578E-03 alpha_mix =  0.700 |ddv_scf|^2 =  8.494E-04

      iter #   3 total cpu time :    14.1 secs   av.it.:   7.2
      thresh= 2.914E-03 alpha_mix =  0.700 |ddv_scf|^2 =  1.630E-08

      iter #   4 total cpu time :    14.2 secs   av.it.:   8.3
      thresh= 1.277E-05 alpha_mix =  0.700 |ddv_scf|^2 =  5.504E-10

      iter #   5 total cpu time :    14.3 secs   av.it.:   8.3
      thresh= 2.346E-06 alpha_mix =  0.700 |ddv_scf|^2 =  4.898E-11

      iter #   6 total cpu time :    14.4 secs   av.it.:   7.6
      thresh= 6.998E-07 alpha_mix =  0.700 |ddv_scf|^2 =  1.977E-14

      iter #   7 total cpu time :    14.4 secs   av.it.:   7.8
      thresh= 1.406E-08 alpha_mix =  0.700 |ddv_scf|^2 =  3.324E-15

      iter #   8 total cpu time :    14.5 secs   av.it.:   7.6
      thresh= 5.765E-09 alpha_mix =  0.700 |ddv_scf|^2 =  4.802E-16

      iter #   9 total cpu time :    14.6 secs   av.it.:   7.5
      thresh= 2.191E-09 alpha_mix =  0.700 |ddv_scf|^2 =  1.915E-19

     End of self-consistent calculation

     Convergence has been achieved 


     Representation #  3 modes #   3  4

     Self-consistent Calculation

      iter #   1 total cpu time :    14.9 secs   av.it.:   5.0
      thresh= 1.000E-02 alpha_mix =  0.700 |ddv_scf|^2 =  7.081E-07

      iter #   2 total cpu time :    15.1 secs   av.it.:   8.9
      thresh= 8.415E-05 alpha_mix =  0.700 |ddv_scf|^2 =  6.509E-08

      iter #   3 total cpu time :    15.3 secs   av.it.:   8.8
      thresh= 2.551E-05 alpha_mix =  0.700 |ddv_scf|^2 =  9.271E-11

      iter #   4 total cpu time :    15.5 secs   av.it.:   8.3
      thresh= 9.629E-07 alpha_mix =  0.700 |ddv_scf|^2 =  2.672E-13

      iter #   5 total cpu time :    15.7 secs   av.it.:   8.7
      thresh= 5.170E-08 alpha_mix =  0.700 |ddv_scf|^2 =  9.843E-16

      iter #   6 total cpu time :    15.9 secs   av.it.:   8.8
      thresh= 3.137E-09 alpha_mix =  0.700 |ddv_scf|^2 =  2.256E-17

     End of self-consistent calculation

     Convergence has been achieved 


     Representation #  4 modes #   5  6

     Self-consistent Calculation

      iter #   1 total cpu time :    16.1 secs   av.it.:   4.9
      thresh= 1.000E-02 alpha_mix =  0.700 |ddv_scf|^2 =  8.115E-08

      iter #   2 total cpu time :    16.3 secs   av.it.:   9.1
      thresh= 2.849E-05 alpha_mix =  0.700 |ddv_scf|^2 =  1.837E-09

      iter #   3 total cpu time :    16.5 secs   av.it.:   8.9
      thresh= 4.286E-06 alpha_mix =  0.700 |ddv_scf|^2 =  6.478E-11

      iter #   4 total cpu time :    16.8 secs   av.it.:   9.0
      thresh= 8.048E-07 alpha_mix =  0.700 |ddv_scf|^2 =  9.188E-14

      iter #   5 total cpu time :    17.1 secs   av.it.:   9.2
      thresh= 3.031E-08 alpha_mix =  0.700 |ddv_scf|^2 =  1.229E-15

      iter #   6 total cpu time :    17.3 secs   av.it.:   9.4
      thresh= 3.506E-09 alpha_mix =  0.700 |ddv_scf|^2 =  7.889E-18

     End of self-consistent calculation

     Convergence has been achieved 

     Number of q in the star =    4
     List of q in the star:
          1   0.500000000  -0.500000000   0.500000000
          2   0.500000000   0.500000000   0.500000000
          3  -0.500000000   0.500000000   0.500000000
          4   0.500000000   0.500000000  -0.500000000

     Diagonalizing the dynamical matrix

     q = (    0.500000000  -0.500000000   0.500000000 ) 

 **************************************************************************
     freq (    1) =       2.839431 [THz] =      94.713235 [cm-1]
     freq (    2) =       2.839431 [THz] =      94.713235 [cm-1]
     freq (    3) =      11.557335 [THz] =     385.511205 [cm-1]
     freq (    4) =      12.574868 [THz] =     419.452458 [cm-1]
     freq (    5) =      15.058387 [THz] =     502.293733 [cm-1]
     freq (    6) =      15.058387 [THz] =     502.293733 [cm-1]
 **************************************************************************

     Calculation of q =    0.0000000   0.5000000   0.0000000

     Parallelization info
     --------------------
     sticks:   dense  smooth     PW     G-vecs:    dense   smooth      PW
     Min          87      87     30                 1027     1027     216
     Max          88      88     31                 1028     1028     218
     Sum         349     349    121                 4111     4111     869


     Title: 
     Ph                                                                         


     bravais-lattice index     =            2
     lattice parameter (alat)  =      10.1000  a.u.
     unit-cell volume          =     257.5752 (a.u.)^3
     number of atoms/cell      =            2
     number of atomic types    =            1
     number of electrons       =         8.00
     number of Kohn-Sham states=            4
     kinetic-energy cutoff     =      24.0000  Ry
     charge density cutoff     =      96.0000  Ry
     Exchange-correlation      = PZ ( 1  1  0  0 0 0)

     celldm(1)=  10.100000  celldm(2)=   0.000000  celldm(3)=   0.000000
     celldm(4)=   0.000000  celldm(5)=   0.000000  celldm(6)=   0.000000

     crystal axes: (cart. coord. in units of alat)
               a(1) = (  -0.500000   0.000000   0.500000 )  
               a(2) = (   0.000000   0.500000   0.500000 )  
               a(3) = (  -0.500000   0.500000   0.000000 )  

     reciprocal axes: (cart. coord. in units 2 pi/alat)
               b(1) = ( -1.000000 -1.000000  1.000000 )  
               b(2) = (  1.000000  1.000000  1.000000 )  
               b(3) = ( -1.000000  1.000000 -1.000000 )  


     PseudoPot. # 1 for Si read from file:
     ../Si.pz-rrkj.UPF
     MD5 check sum: 884b380b739b48e9cd334294cddc9a8d
     Pseudo is Norm-conserving, Zval =  4.0
     Generated using "atomic" code by A. Dal Corso (espresso distribution)
     Using radial grid of 1141 points,  2 beta functions with: 
                l(1) =   0
                l(2) =   1

     atomic species   valence    mass     pseudopotential
        Si             4.00    28.08600     Si( 1.00)

     48 Sym. Ops., with inversion, found



   Cartesian axes

     site n.     atom                  positions (alat units)
         1           Si  tau(   1) = (   0.0000000   0.0000000   0.0000000  )
         2           Si  tau(   2) = (   0.2500000   0.2500000   0.2500000  )

     number of k points=    36
                       cart. coord. in units 2pi/alat
        k(    1) = (   0.0000000   0.0000000   0.0000000), wk =   0.0312500
        k(    2) = (   0.0000000   0.5000000   0.0000000), wk =   0.0000000
        k(    3) = (  -0.2500000   0.2500000  -0.2500000), wk =   0.1250000
        k(    4) = (  -0.2500000   0.7500000  -0.2500000), wk =   0.0000000
        k(    5) = (   0.5000000  -0.5000000   0.5000000), wk =   0.1250000
        k(    6) = (   0.5000000   0.0000000   0.5000000), wk =   0.0000000
        k(    7) = (   0.0000000   0.5000000   0.0000000), wk =   0.0312500
        k(    8) = (   0.0000000   1.0000000   0.0000000), wk =   0.0000000
        k(    9) = (   0.7500000  -0.2500000   0.7500000), wk =   0.1250000
        k(   10) = (   0.7500000   0.2500000   0.7500000), wk =   0.0000000
        k(   11) = (   0.5000000   0.0000000   0.5000000), wk =   0.1250000
        k(   12) = (   0.5000000   0.5000000   0.5000000), wk =   0.0000000
        k(   13) = (   0.0000000  -1.0000000   0.0000000), wk =   0.0312500
        k(   14) = (   0.0000000  -0.5000000   0.0000000), wk =   0.0000000
        k(   15) = (  -0.5000000  -1.0000000   0.0000000), wk =   0.1250000
        k(   16) = (  -0.5000000  -0.5000000   0.0000000), wk =   0.0000000
        k(   17) = (   0.2500000  -0.2500000   0.2500000), wk =   0.1250000
        k(   18) = (   0.2500000   0.2500000   0.2500000), wk =   0.0000000
        k(   19) = (   0.0000000  -0.5000000   0.0000000), wk =   0.0312500
        k(   20) = (   0.0000000   0.0000000   0.0000000), wk =   0.0000000
        k(   21) = (   0.5000000   0.0000000   0.0000000), wk =   0.1250000
        k(   22) = (   0.5000000   0.5000000   0.0000000), wk =   0.0000000
        k(   23) = (  -0.7500000   0.2500000  -0.7500000), wk =   0.1250000
        k(   24) = (  -0.7500000   0.7500000  -0.7500000), wk =   0.0000000
        k(   25) = (  -0.2500000   0.7500000  -0.7500000), wk =   0.2500000
        k(   26) = (  -0.2500000   1.2500000  -0.7500000), wk =   0.0000000
        k(   27) = (  -0.2500000  -0.7500000  -0.7500000), wk =   0.2500000
        k(   28) = (  -0.2500000  -0.2500000  -0.7500000), wk =   0.0000000
        k(   29) = (   0.0000000   0.5000000  -0.5000000), wk =   0.1250000
        k(   30) = (   0.0000000   1.0000000  -0.5000000), wk =   0.0000000
        k(   31) = (   0.0000000  -0.5000000  -0.5000000), wk =   0.1250000
        k(   32) = (   0.0000000   0.0000000  -0.5000000), wk =   0.0000000
        k(   33) = (  -1.0000000   0.0000000   0.0000000), wk =   0.0625000
        k(   34) = (  -1.0000000   0.5000000   0.0000000), wk =   0.0000000
        k(   35) = (  -1.0000000  -0.5000000   0.0000000), wk =   0.0625000
        k(   36) = (  -1.0000000   0.0000000   0.0000000), wk =   0.0000000

     Dense  grid:     4111 G-vectors     FFT dimensions: (  24,  24,  24)

     Estimated max dynamical RAM per process >       0.58 MB

     Estimated total dynamical RAM >       2.33 MB

     The potential is recalculated from file :
     ./tmp/_ph0/silicon.save/charge-density

     Starting wfcs are    8 atomic wfcs

     Band Structure Calculation
     Davidson diagonalization with overlap

     ethr =  1.25E-10,  avg # of iterations =  9.7

     total cpu time spent up to now is        1.0 secs

     End of band structure calculation

          k = 0.0000 0.0000 0.0000 (   531 PWs)   bands (ev):

    -5.7223   6.5742   6.5742   6.5742

          k = 0.0000 0.5000 0.0000 (   504 PWs)   bands (ev):

    -4.5945   3.0517   4.5932   4.5932

          k =-0.2500 0.2500-0.2500 (   516 PWs)   bands (ev):

    -4.8873   2.5377   5.7851   5.7851

          k =-0.2500 0.7500-0.2500 (   510 PWs)   bands (ev):

    -2.8746   0.0484   2.8602   4.2709

          k = 0.5000-0.5000 0.5000 (   502 PWs)   bands (ev):

    -3.2592  -0.6509   5.3377   5.3377

          k = 0.5000 0.0000 0.5000 (   512 PWs)   bands (ev):

    -3.5836   0.9950   2.6094   5.1943

          k = 0.0000 0.5000 0.0000 (   504 PWs)   bands (ev):

    -4.5945   3.0517   4.5932   4.5932

          k = 0.0000 1.0000 0.0000 (   524 PWs)   bands (ev):

    -1.4019  -1.4019   3.5941   3.5941

          k = 0.7500-0.2500 0.7500 (   510 PWs)   bands (ev):

    -2.8746   0.0484   2.8602   4.2709

          k = 0.7500 0.2500 0.7500 (   510 PWs)   bands (ev):

    -2.8746   0.0484   2.8602   4.2709

          k = 0.5000 0.0000 0.5000 (   512 PWs)   bands (ev):

    -3.5836   0.9950   2.6094   5.1943

          k = 0.5000 0.5000 0.5000 (   502 PWs)   bands (ev):

    -3.2592  -0.6509   5.3377   5.3377

          k = 0.0000-1.0000 0.0000 (   524 PWs)   bands (ev):

    -1.4019  -1.4019   3.5941   3.5941

          k = 0.0000-0.5000 0.0000 (   504 PWs)   bands (ev):

    -4.5945   3.0517   4.5932   4.5932

          k =-0.5000-1.0000 0.0000 (   516 PWs)   bands (ev):

    -1.2112  -1.2112   2.4893   2.4893

          k =-0.5000-0.5000 0.0000 (   512 PWs)   bands (ev):

    -3.5836   0.9950   2.6094   5.1943

          k = 0.2500-0.2500 0.2500 (   516 PWs)   bands (ev):

    -4.8873   2.5377   5.7851   5.7851

          k = 0.2500 0.2500 0.2500 (   516 PWs)   bands (ev):

    -4.8873   2.5377   5.7851   5.7851

          k = 0.0000-0.5000 0.0000 (   504 PWs)   bands (ev):

    -4.5945   3.0517   4.5932   4.5932

          k = 0.0000 0.0000 0.0000 (   531 PWs)   bands (ev):

    -5.7223   6.5742   6.5742   6.5742

          k = 0.5000 0.0000 0.0000 (   504 PWs)   bands (ev):

    -4.5945   3.0517   4.5932   4.5932

          k = 0.5000 0.5000 0.0000 (   512 PWs)   bands (ev):

    -3.5836   0.9950   2.6094   5.1943

          k =-0.7500 0.2500-0.7500 (   510 PWs)   bands (ev):

    -2.8746   0.0484   2.8602   4.2709

          k =-0.7500 0.7500-0.7500 (   516 PWs)   bands (ev):

    -4.8873   2.5377   5.7851   5.7851

          k =-0.2500 0.7500-0.7500 (   510 PWs)   bands (ev):

    -2.8746   0.0484   2.8602   4.2709

          k =-0.2500 1.2500-0.7500 (   510 PWs)   bands (ev):

    -2.8746   0.0484   2.8602   4.2709

          k =-0.2500-0.7500-0.7500 (   510 PWs)   bands (ev):

    -2.8746   0.0484   2.8602   4.2709

          k =-0.2500-0.2500-0.7500 (   510 PWs)   bands (ev):

    -2.8746   0.0484   2.8602   4.2709

          k = 0.0000 0.5000-0.5000 (   512 PWs)   bands (ev):

    -3.5836   0.9950   2.6094   5.1943

          k = 0.0000 1.0000-0.5000 (   516 PWs)   bands (ev):

    -1.2112  -1.2112   2.4893   2.4893

          k = 0.0000-0.5000-0.5000 (   512 PWs)   bands (ev):

    -3.5836   0.9950   2.6094   5.1943

          k = 0.0000 0.0000-0.5000 (   504 PWs)   bands (ev):

    -4.5945   3.0517   4.5932   4.5932

          k =-1.0000 0.0000 0.0000 (   524 PWs)   bands (ev):

    -1.4019  -1.4019   3.5941   3.5941

          k =-1.0000 0.5000 0.0000 (   516 PWs)   bands (ev):

    -1.2112  -1.2112   2.4893   2.4893

          k =-1.0000-0.5000 0.0000 (   516 PWs)   bands (ev):

    -1.2112  -1.2112   2.4893   2.4893

          k =-1.0000 0.0000 0.0000 (   524 PWs)   bands (ev):

    -1.4019  -1.4019   3.5941   3.5941

     highest occupied level (ev):     6.5742

     Writing output data file silicon.save/

     Ph                                                                         

     bravais-lattice index     =            2
     lattice parameter (alat)  =      10.1000  a.u.
     unit-cell volume          =     257.5752 (a.u.)^3
     number of atoms/cell      =            2
     number of atomic types    =            1
     kinetic-energy cut-off    =      24.0000  Ry
     charge density cut-off    =      96.0000  Ry
     convergence threshold     =      1.0E-16
     beta                      =       0.7000
     number of iterations used =            4
     Exchange-correlation      = PZ ( 1  1  0  0 0 0)


     celldm(1)=   10.10000  celldm(2)=    0.00000  celldm(3)=    0.00000
     celldm(4)=    0.00000  celldm(5)=    0.00000  celldm(6)=    0.00000

     crystal axes: (cart. coord. in units of alat)
               a(1) = ( -0.5000  0.0000  0.5000 )  
               a(2) = (  0.0000  0.5000  0.5000 )  
               a(3) = ( -0.5000  0.5000  0.0000 )  

     reciprocal axes: (cart. coord. in units 2 pi/alat)
               b(1) = ( -1.0000 -1.0000  1.0000 )  
               b(2) = (  1.0000  1.0000  1.0000 )  
               b(3) = ( -1.0000  1.0000 -1.0000 )  


     Atoms inside the unit cell: 

     Cartesian axes

     site n.  atom      mass           positions (alat units)
        1     Si  28.0860   tau(    1) = (    0.00000    0.00000    0.00000  )
        2     Si  28.0860   tau(    2) = (    0.25000    0.25000    0.25000  )

     Computing dynamical matrix for 
                    q = (   0.0000000   0.5000000   0.0000000 )

      8 Sym.Ops. (no q -> -q+G )


     G cutoff =  248.0586  (   1028 G-vectors)     FFT grid: ( 24, 24, 24)
     number of k points=    36

     PseudoPot. # 1 for Si read from file:
     ../Si.pz-rrkj.UPF
     MD5 check sum: 884b380b739b48e9cd334294cddc9a8d
     Pseudo is Norm-conserving, Zval =  4.0
     Generated using "atomic" code by A. Dal Corso (espresso distribution)
     Using radial grid of 1141 points,  2 beta functions with: 
                l(1) =   0
                l(2) =   1

     Mode symmetry, C_4v (4mm)  point group:


     Atomic displacements:
     There are   4 irreducible representations

     Representation     1      1 modes -A_1  G_1 D_1  To be done

     Representation     2      1 modes -B_2  G_4 D_2'  To be done

     Representation     3      2 modes -E    G_5 D_5  To be done

     Representation     4      2 modes -E    G_5 D_5  To be done



     Alpha used in Ewald sum =   1.0000
     PHONON       :     15.27s CPU     17.68s WALL



     Representation #  1 mode #   1

     Self-consistent Calculation

      iter #   1 total cpu time :    17.8 secs   av.it.:   5.8
      thresh= 1.000E-02 alpha_mix =  0.700 |ddv_scf|^2 =  1.760E-03

      iter #   2 total cpu time :    17.9 secs   av.it.:   7.6
      thresh= 4.195E-03 alpha_mix =  0.700 |ddv_scf|^2 =  2.105E-02

      iter #   3 total cpu time :    18.0 secs   av.it.:   6.4
      thresh= 1.000E-02 alpha_mix =  0.700 |ddv_scf|^2 =  1.903E-08

      iter #   4 total cpu time :    18.2 secs   av.it.:   8.3
      thresh= 1.380E-05 alpha_mix =  0.700 |ddv_scf|^2 =  1.242E-09

      iter #   5 total cpu time :    18.4 secs   av.it.:   7.9
      thresh= 3.525E-06 alpha_mix =  0.700 |ddv_scf|^2 =  2.572E-11

      iter #   6 total cpu time :    18.5 secs   av.it.:   7.2
      thresh= 5.072E-07 alpha_mix =  0.700 |ddv_scf|^2 =  6.551E-13

      iter #   7 total cpu time :    18.7 secs   av.it.:   6.7
      thresh= 8.094E-08 alpha_mix =  0.700 |ddv_scf|^2 =  4.208E-15

      iter #   8 total cpu time :    18.9 secs   av.it.:   7.4
      thresh= 6.487E-09 alpha_mix =  0.700 |ddv_scf|^2 =  9.409E-18

     End of self-consistent calculation

     Convergence has been achieved 


     Representation #  2 mode #   2

     Self-consistent Calculation

      iter #   1 total cpu time :    19.0 secs   av.it.:   5.2
      thresh= 1.000E-02 alpha_mix =  0.700 |ddv_scf|^2 =  3.284E-06

      iter #   2 total cpu time :    19.2 secs   av.it.:   8.2
      thresh= 1.812E-04 alpha_mix =  0.700 |ddv_scf|^2 =  6.998E-07

      iter #   3 total cpu time :    19.4 secs   av.it.:   8.1
      thresh= 8.365E-05 alpha_mix =  0.700 |ddv_scf|^2 =  2.719E-09

      iter #   4 total cpu time :    19.5 secs   av.it.:   8.2
      thresh= 5.214E-06 alpha_mix =  0.700 |ddv_scf|^2 =  8.365E-11

      iter #   5 total cpu time :    19.6 secs   av.it.:   7.6
      thresh= 9.146E-07 alpha_mix =  0.700 |ddv_scf|^2 =  1.209E-12

      iter #   6 total cpu time :    19.7 secs   av.it.:   7.4
      thresh= 1.099E-07 alpha_mix =  0.700 |ddv_scf|^2 =  6.736E-16

      iter #   7 total cpu time :    19.9 secs   av.it.:   8.4
      thresh= 2.595E-09 alpha_mix =  0.700 |ddv_scf|^2 =  2.170E-17

     End of self-consistent calculation

     Convergence has been achieved 


     Representation #  3 modes #   3  4

     Self-consistent Calculation

      iter #   1 total cpu time :    20.1 secs   av.it.:   5.5
      thresh= 1.000E-02 alpha_mix =  0.700 |ddv_scf|^2 =  7.803E-07

      iter #   2 total cpu time :    20.4 secs   av.it.:   9.2
      thresh= 8.833E-05 alpha_mix =  0.700 |ddv_scf|^2 =  1.327E-07

      iter #   3 total cpu time :    20.8 secs   av.it.:   8.8
      thresh= 3.643E-05 alpha_mix =  0.700 |ddv_scf|^2 =  1.240E-10

      iter #   4 total cpu time :    21.0 secs   av.it.:   8.7
      thresh= 1.113E-06 alpha_mix =  0.700 |ddv_scf|^2 =  5.896E-12

      iter #   5 total cpu time :    21.3 secs   av.it.:   8.6
      thresh= 2.428E-07 alpha_mix =  0.700 |ddv_scf|^2 =  5.853E-15

      iter #   6 total cpu time :    21.7 secs   av.it.:   9.5
      thresh= 7.651E-09 alpha_mix =  0.700 |ddv_scf|^2 =  2.004E-17

     End of self-consistent calculation

     Convergence has been achieved 


     Representation #  4 modes #   5  6

     Self-consistent Calculation

      iter #   1 total cpu time :    21.9 secs   av.it.:   5.4
      thresh= 1.000E-02 alpha_mix =  0.700 |ddv_scf|^2 =  5.145E-07

      iter #   2 total cpu time :    22.2 secs   av.it.:   9.3
      thresh= 7.173E-05 alpha_mix =  0.700 |ddv_scf|^2 =  8.526E-08

      iter #   3 total cpu time :    22.4 secs   av.it.:   8.8
      thresh= 2.920E-05 alpha_mix =  0.700 |ddv_scf|^2 =  1.311E-10

      iter #   4 total cpu time :    22.7 secs   av.it.:   8.8
      thresh= 1.145E-06 alpha_mix =  0.700 |ddv_scf|^2 =  6.670E-12

      iter #   5 total cpu time :    23.0 secs   av.it.:   8.6
      thresh= 2.583E-07 alpha_mix =  0.700 |ddv_scf|^2 =  6.910E-15

      iter #   6 total cpu time :    23.3 secs   av.it.:   9.5
      thresh= 8.313E-09 alpha_mix =  0.700 |ddv_scf|^2 =  2.460E-17

     End of self-consistent calculation

     Convergence has been achieved 

     Number of q in the star =    6
     List of q in the star:
          1   0.000000000   0.500000000   0.000000000
          2   0.000000000  -0.500000000   0.000000000
          3   0.500000000   0.000000000   0.000000000
          4   0.000000000   0.000000000   0.500000000
          5   0.000000000   0.000000000  -0.500000000
          6  -0.500000000   0.000000000   0.000000000

     Diagonalizing the dynamical matrix

     q = (    0.000000000   0.500000000   0.000000000 ) 

 **************************************************************************
     freq (    1) =       3.684840 [THz] =     122.913022 [cm-1]
     freq (    2) =       3.684840 [THz] =     122.913022 [cm-1]
     freq (    3) =       7.385650 [THz] =     246.358754 [cm-1]
     freq (    4) =      14.696364 [THz] =     490.217939 [cm-1]
     freq (    5) =      14.696364 [THz] =     490.217939 [cm-1]
     freq (    6) =      15.306131 [THz] =     510.557588 [cm-1]
 **************************************************************************

     Mode symmetry, C_4v (4mm)  point group:

     freq (  1 -  2) =        122.9  [cm-1]   --> E    G_5 D_5       
     freq (  3 -  3) =        246.4  [cm-1]   --> A_1  G_1 D_1       
     freq (  4 -  5) =        490.2  [cm-1]   --> E    G_5 D_5       
     freq (  6 -  6) =        510.6  [cm-1]   --> B_2  G_4 D_2'      

     Calculation of q =    0.7500000  -0.2500000   0.7500000

     Parallelization info
     --------------------
     sticks:   dense  smooth     PW     G-vecs:    dense   smooth      PW
     Min          87      87     34                 1027     1027     266
     Max          88      88     35                 1028     1028     267
     Sum         349     349    139                 4111     4111    1067


     Title: 
     Ph                                                                         


     bravais-lattice index     =            2
     lattice parameter (alat)  =      10.1000  a.u.
     unit-cell volume          =     257.5752 (a.u.)^3
     number of atoms/cell      =            2
     number of atomic types    =            1
     number of electrons       =         8.00
     number of Kohn-Sham states=            4
     kinetic-energy cutoff     =      24.0000  Ry
     charge density cutoff     =      96.0000  Ry
     Exchange-correlation      = PZ ( 1  1  0  0 0 0)

     celldm(1)=  10.100000  celldm(2)=   0.000000  celldm(3)=   0.000000
     celldm(4)=   0.000000  celldm(5)=   0.000000  celldm(6)=   0.000000

     crystal axes: (cart. coord. in units of alat)
               a(1) = (  -0.500000   0.000000   0.500000 )  
               a(2) = (   0.000000   0.500000   0.500000 )  
               a(3) = (  -0.500000   0.500000   0.000000 )  

     reciprocal axes: (cart. coord. in units 2 pi/alat)
               b(1) = ( -1.000000 -1.000000  1.000000 )  
               b(2) = (  1.000000  1.000000  1.000000 )  
               b(3) = ( -1.000000  1.000000 -1.000000 )  


     PseudoPot. # 1 for Si read from file:
     ../Si.pz-rrkj.UPF
     MD5 check sum: 884b380b739b48e9cd334294cddc9a8d
     Pseudo is Norm-conserving, Zval =  4.0
     Generated using "atomic" code by A. Dal Corso (espresso distribution)
     Using radial grid of 1141 points,  2 beta functions with: 
                l(1) =   0
                l(2) =   1

     atomic species   valence    mass     pseudopotential
        Si             4.00    28.08600     Si( 1.00)

     48 Sym. Ops., with inversion, found



   Cartesian axes

     site n.     atom                  positions (alat units)
         1           Si  tau(   1) = (   0.0000000   0.0000000   0.0000000  )
         2           Si  tau(   2) = (   0.2500000   0.2500000   0.2500000  )

     number of k points=    80
                       cart. coord. in units 2pi/alat
        k(    1) = (   0.0000000   0.0000000   0.0000000), wk =   0.0312500
        k(    2) = (   0.7500000  -0.2500000   0.7500000), wk =   0.0000000
        k(    3) = (  -0.2500000   0.2500000  -0.2500000), wk =   0.0312500
        k(    4) = (   0.5000000   0.0000000   0.5000000), wk =   0.0000000
        k(    5) = (   0.5000000  -0.5000000   0.5000000), wk =   0.0312500
        k(    6) = (   1.2500000  -0.7500000   1.2500000), wk =   0.0000000
        k(    7) = (   0.0000000   0.5000000   0.0000000), wk =   0.0312500
        k(    8) = (   0.7500000   0.2500000   0.7500000), wk =   0.0000000
        k(    9) = (   0.7500000  -0.2500000   0.7500000), wk =   0.0312500
        k(   10) = (   1.5000000  -0.5000000   1.5000000), wk =   0.0000000
        k(   11) = (   0.5000000   0.0000000   0.5000000), wk =   0.0312500
        k(   12) = (   1.2500000  -0.2500000   1.2500000), wk =   0.0000000
        k(   13) = (   0.0000000  -1.0000000   0.0000000), wk =   0.0312500
        k(   14) = (   0.7500000  -1.2500000   0.7500000), wk =   0.0000000
        k(   15) = (  -0.5000000  -1.0000000   0.0000000), wk =   0.0625000
        k(   16) = (   0.2500000  -1.2500000   0.7500000), wk =   0.0000000
        k(   17) = (  -0.2500000   0.2500000   0.2500000), wk =   0.0625000
        k(   18) = (   0.5000000   0.0000000   1.0000000), wk =   0.0000000
        k(   19) = (   0.2500000   0.2500000   0.2500000), wk =   0.0312500
        k(   20) = (   1.0000000   0.0000000   1.0000000), wk =   0.0000000
        k(   21) = (   0.2500000  -0.2500000   0.2500000), wk =   0.0312500
        k(   22) = (   1.0000000  -0.5000000   1.0000000), wk =   0.0000000
        k(   23) = (  -0.2500000  -0.2500000  -0.2500000), wk =   0.0312500
        k(   24) = (   0.5000000  -0.5000000   0.5000000), wk =   0.0000000
        k(   25) = (   0.2500000  -0.2500000  -0.2500000), wk =   0.0625000
        k(   26) = (   1.0000000  -0.5000000   0.5000000), wk =   0.0000000
        k(   27) = (   0.5000000  -0.5000000  -0.5000000), wk =   0.0625000
        k(   28) = (   1.2500000  -0.7500000   0.2500000), wk =   0.0000000
        k(   29) = (  -0.5000000  -0.5000000  -0.5000000), wk =   0.0312500
        k(   30) = (   0.2500000  -0.7500000   0.2500000), wk =   0.0000000
        k(   31) = (   0.0000000  -0.5000000   0.0000000), wk =   0.0312500
        k(   32) = (   0.7500000  -0.7500000   0.7500000), wk =   0.0000000
        k(   33) = (   0.5000000   0.0000000   0.0000000), wk =   0.0625000
        k(   34) = (   1.2500000  -0.2500000   0.7500000), wk =   0.0000000
        k(   35) = (   0.0000000   0.0000000  -0.5000000), wk =   0.0625000
        k(   36) = (   0.7500000  -0.2500000   0.2500000), wk =   0.0000000
        k(   37) = (   0.7500000  -0.2500000  -0.7500000), wk =   0.0625000
        k(   38) = (   1.5000000  -0.5000000   0.0000000), wk =   0.0000000
        k(   39) = (  -0.7500000  -0.2500000  -0.7500000), wk =   0.0312500
        k(   40) = (   0.0000000  -0.5000000   0.0000000), wk =   0.0000000
        k(   41) = (  -0.7500000   0.2500000  -0.7500000), wk =   0.0312500
        k(   42) = (   0.0000000   0.0000000   0.0000000), wk =   0.0000000
        k(   43) = (  -0.2500000   0.7500000  -0.7500000), wk =   0.0625000
        k(   44) = (   0.5000000   0.5000000   0.0000000), wk =   0.0000000
        k(   45) = (   0.7500000   0.2500000   0.7500000), wk =   0.0312500
        k(   46) = (   1.5000000   0.0000000   1.5000000), wk =   0.0000000
        k(   47) = (  -0.7500000   0.2500000   0.7500000), wk =   0.0625000
        k(   48) = (   0.0000000   0.0000000   1.5000000), wk =   0.0000000
        k(   49) = (  -0.7500000   0.7500000   0.2500000), wk =   0.0625000
        k(   50) = (   0.0000000   0.5000000   1.0000000), wk =   0.0000000
        k(   51) = (  -0.2500000   0.7500000   0.7500000), wk =   0.0625000
        k(   52) = (   0.5000000   0.5000000   1.5000000), wk =   0.0000000
        k(   53) = (  -0.2500000  -0.7500000  -0.7500000), wk =   0.0625000
        k(   54) = (   0.5000000  -1.0000000   0.0000000), wk =   0.0000000
        k(   55) = (   0.7500000  -0.7500000   0.2500000), wk =   0.0625000
        k(   56) = (   1.5000000  -1.0000000   1.0000000), wk =   0.0000000
        k(   57) = (  -0.7500000  -0.7500000   0.2500000), wk =   0.0625000
        k(   58) = (   0.0000000  -1.0000000   1.0000000), wk =   0.0000000
        k(   59) = (   0.2500000   0.7500000   0.7500000), wk =   0.0625000
        k(   60) = (   1.0000000   0.5000000   1.5000000), wk =   0.0000000
        k(   61) = (  -0.2500000  -0.7500000   0.7500000), wk =   0.0625000
        k(   62) = (   0.5000000  -1.0000000   1.5000000), wk =   0.0000000
        k(   63) = (   0.5000000   0.0000000  -0.5000000), wk =   0.0625000
        k(   64) = (   1.2500000  -0.2500000   0.2500000), wk =   0.0000000
        k(   65) = (  -0.5000000   0.0000000  -0.5000000), wk =   0.0312500
        k(   66) = (   0.2500000  -0.2500000   0.2500000), wk =   0.0000000
        k(   67) = (   0.0000000   0.5000000  -0.5000000), wk =   0.0625000
        k(   68) = (   0.7500000   0.2500000   0.2500000), wk =   0.0000000
        k(   69) = (   0.0000000   0.5000000   0.5000000), wk =   0.0625000
        k(   70) = (   0.7500000   0.2500000   1.2500000), wk =   0.0000000
        k(   71) = (   0.0000000  -0.5000000  -0.5000000), wk =   0.0625000
        k(   72) = (   0.7500000  -0.7500000   0.2500000), wk =   0.0000000
        k(   73) = (   0.5000000  -0.5000000   0.0000000), wk =   0.0625000
        k(   74) = (   1.2500000  -0.7500000   0.7500000), wk =   0.0000000
        k(   75) = (  -1.0000000   0.0000000   0.0000000), wk =   0.0625000
        k(   76) = (  -0.2500000  -0.2500000   0.7500000), wk =   0.0000000
        k(   77) = (   0.5000000  -1.0000000   0.0000000), wk =   0.0625000
        k(   78) = (   1.2500000  -1.2500000   0.7500000), wk =   0.0000000
        k(   79) = (  -1.0000000  -0.5000000   0.0000000), wk =   0.0625000
        k(   80) = (  -0.2500000  -0.7500000   0.7500000), wk =   0.0000000

     Dense  grid:     4111 G-vectors     FFT dimensions: (  24,  24,  24)

     Estimated max dynamical RAM per process >       0.59 MB

     Estimated total dynamical RAM >       2.34 MB

     The potential is recalculated from file :
     ./tmp/_ph0/silicon.save/charge-density

     Starting wfcs are    8 atomic wfcs

     Band Structure Calculation
     Davidson diagonalization with overlap

     ethr =  1.25E-10,  avg # of iterations =  9.8

     total cpu time spent up to now is        1.7 secs

     End of band structure calculation

          k = 0.0000 0.0000 0.0000 (   531 PWs)   bands (ev):

    -5.7223   6.5742   6.5742   6.5742

          k = 0.7500-0.2500 0.7500 (   510 PWs)   bands (ev):

    -2.8746   0.0484   2.8602   4.2709

          k =-0.2500 0.2500-0.2500 (   516 PWs)   bands (ev):

    -4.8873   2.5377   5.7851   5.7851

          k = 0.5000 0.0000 0.5000 (   512 PWs)   bands (ev):

    -3.5836   0.9950   2.6094   5.1943

          k = 0.5000-0.5000 0.5000 (   502 PWs)   bands (ev):

    -3.2592  -0.6509   5.3377   5.3377

          k = 1.2500-0.7500 1.2500 (   516 PWs)   bands (ev):

    -4.8873   2.5377   5.7851   5.7851

          k = 0.0000 0.5000 0.0000 (   504 PWs)   bands (ev):

    -4.5945   3.0517   4.5932   4.5932

          k = 0.7500 0.2500 0.7500 (   510 PWs)   bands (ev):

    -2.8746   0.0484   2.8602   4.2709

          k = 0.7500-0.2500 0.7500 (   510 PWs)   bands (ev):

    -2.8746   0.0484   2.8602   4.2709

          k = 1.5000-0.5000 1.5000 (   502 PWs)   bands (ev):

    -3.2592  -0.6509   5.3377   5.3377

          k = 0.5000 0.0000 0.5000 (   512 PWs)   bands (ev):

    -3.5836   0.9950   2.6094   5.1943

          k = 1.2500-0.2500 1.2500 (   510 PWs)   bands (ev):

    -2.8746   0.0484   2.8602   4.2709

          k = 0.0000-1.0000 0.0000 (   524 PWs)   bands (ev):

    -1.4019  -1.4019   3.5941   3.5941

          k = 0.7500-1.2500 0.7500 (   516 PWs)   bands (ev):

    -4.8873   2.5377   5.7851   5.7851

          k =-0.5000-1.0000 0.0000 (   516 PWs)   bands (ev):

    -1.2112  -1.2112   2.4893   2.4893

          k = 0.2500-1.2500 0.7500 (   510 PWs)   bands (ev):

    -2.8746   0.0484   2.8602   4.2709

          k =-0.2500 0.2500 0.2500 (   516 PWs)   bands (ev):

    -4.8873   2.5377   5.7851   5.7851

          k = 0.5000 0.0000 1.0000 (   516 PWs)   bands (ev):

    -1.2112  -1.2112   2.4893   2.4893

          k = 0.2500 0.2500 0.2500 (   516 PWs)   bands (ev):

    -4.8873   2.5377   5.7851   5.7851

          k = 1.0000 0.0000 1.0000 (   524 PWs)   bands (ev):

    -1.4019  -1.4019   3.5941   3.5941

          k = 0.2500-0.2500 0.2500 (   516 PWs)   bands (ev):

    -4.8873   2.5377   5.7851   5.7851

          k = 1.0000-0.5000 1.0000 (   504 PWs)   bands (ev):

    -4.5945   3.0517   4.5932   4.5932

          k =-0.2500-0.2500-0.2500 (   516 PWs)   bands (ev):

    -4.8873   2.5377   5.7851   5.7851

          k = 0.5000-0.5000 0.5000 (   502 PWs)   bands (ev):

    -3.2592  -0.6509   5.3377   5.3377

          k = 0.2500-0.2500-0.2500 (   516 PWs)   bands (ev):

    -4.8873   2.5377   5.7851   5.7851

          k = 1.0000-0.5000 0.5000 (   512 PWs)   bands (ev):

    -3.5836   0.9950   2.6094   5.1943

          k = 0.5000-0.5000-0.5000 (   502 PWs)   bands (ev):

    -3.2592  -0.6509   5.3377   5.3377

          k = 1.2500-0.7500 0.2500 (   510 PWs)   bands (ev):

    -2.8746   0.0484   2.8602   4.2709

          k =-0.5000-0.5000-0.5000 (   502 PWs)   bands (ev):

    -3.2592  -0.6509   5.3377   5.3377

          k = 0.2500-0.7500 0.2500 (   510 PWs)   bands (ev):

    -2.8746   0.0484   2.8602   4.2709

          k = 0.0000-0.5000 0.0000 (   504 PWs)   bands (ev):

    -4.5945   3.0517   4.5932   4.5932

          k = 0.7500-0.7500 0.7500 (   516 PWs)   bands (ev):

    -4.8873   2.5377   5.7851   5.7851

          k = 0.5000 0.0000 0.0000 (   504 PWs)   bands (ev):

    -4.5945   3.0517   4.5932   4.5932

          k = 1.2500-0.2500 0.7500 (   510 PWs)   bands (ev):

    -2.8746   0.0484   2.8602   4.2709

          k = 0.0000 0.0000-0.5000 (   504 PWs)   bands (ev):

    -4.5945   3.0517   4.5932   4.5932

          k = 0.7500-0.2500 0.2500 (   510 PWs)   bands (ev):

    -2.8746   0.0484   2.8602   4.2709

          k = 0.7500-0.2500-0.7500 (   510 PWs)   bands (ev):

    -2.8746   0.0484   2.8602   4.2709

          k = 1.5000-0.5000 0.0000 (   512 PWs)   bands (ev):

    -3.5836   0.9950   2.6094   5.1943

          k =-0.7500-0.2500-0.7500 (   510 PWs)   bands (ev):

    -2.8746   0.0484   2.8602   4.2709

          k = 0.0000-0.5000 0.0000 (   504 PWs)   bands (ev):

    -4.5945   3.0517   4.5932   4.5932

          k =-0.7500 0.2500-0.7500 (   510 PWs)   bands (ev):

    -2.8746   0.0484   2.8602   4.2709

          k = 0.0000 0.0000 0.0000 (   531 PWs)   bands (ev):

    -5.7223   6.5742   6.5742   6.5742

          k =-0.2500 0.7500-0.7500 (   510 PWs)   bands (ev):

    -2.8746   0.0484   2.8602   4.2709

          k = 0.5000 0.5000 0.0000 (   512 PWs)   bands (ev):

    -3.5836   0.9950   2.6094   5.1943

          k = 0.7500 0.2500 0.7500 (   510 PWs)   bands (ev):

    -2.8746   0.0484   2.8602   4.2709

          k = 1.5000 0.0000 1.5000 (   512 PWs)   bands (ev):

    -3.5836   0.9950   2.6094   5.1943

          k =-0.7500 0.2500 0.7500 (   510 PWs)   bands (ev):

    -2.8746   0.0484   2.8602   4.2709

          k = 0.0000 0.0000 1.5000 (   504 PWs)   bands (ev):

    -4.5945   3.0517   4.5932   4.5932

          k =-0.7500 0.7500 0.2500 (   510 PWs)   bands (ev):

    -2.8746   0.0484   2.8602   4.2709

          k = 0.0000 0.5000 1.0000 (   516 PWs)   bands (ev):

    -1.2112  -1.2112   2.4893   2.4893

          k =-0.2500 0.7500 0.7500 (   510 PWs)   bands (ev):

    -2.8746   0.0484   2.8602   4.2709

          k = 0.5000 0.5000 1.5000 (   502 PWs)   bands (ev):

    -3.2592  -0.6509   5.3377   5.3377

          k =-0.2500-0.7500-0.7500 (   510 PWs)   bands (ev):

    -2.8746   0.0484   2.8602   4.2709

          k = 0.5000-1.0000 0.0000 (   516 PWs)   bands (ev):

    -1.2112  -1.2112   2.4893   2.4893

          k = 0.7500-0.7500 0.2500 (   510 PWs)   bands (ev):

    -2.8746   0.0484   2.8602   4.2709

          k = 1.5000-1.0000 1.0000 (   504 PWs)   bands (ev):

    -4.5945   3.0517   4.5932   4.5932

          k =-0.7500-0.7500 0.2500 (   510 PWs)   bands (ev):

    -2.8746   0.0484   2.8602   4.2709

          k = 0.0000-1.0000 1.0000 (   524 PWs)   bands (ev):

    -1.4019  -1.4019   3.5941   3.5941

          k = 0.2500 0.7500 0.7500 (   510 PWs)   bands (ev):

    -2.8746   0.0484   2.8602   4.2709

          k = 1.0000 0.5000 1.5000 (   512 PWs)   bands (ev):

    -3.5836   0.9950   2.6094   5.1943

          k =-0.2500-0.7500 0.7500 (   510 PWs)   bands (ev):

    -2.8746   0.0484   2.8602   4.2709

          k = 0.5000-1.0000 1.5000 (   512 PWs)   bands (ev):

    -3.5836   0.9950   2.6094   5.1943

          k = 0.5000 0.0000-0.5000 (   512 PWs)   bands (ev):

    -3.5836   0.9950   2.6094   5.1943

          k = 1.2500-0.2500 0.2500 (   510 PWs)   bands (ev):

    -2.8746   0.0484   2.8602   4.2709

          k =-0.5000 0.0000-0.5000 (   512 PWs)   bands (ev):

    -3.5836   0.9950   2.6094   5.1943

          k = 0.2500-0.2500 0.2500 (   516 PWs)   bands (ev):

    -4.8873   2.5377   5.7851   5.7851

          k = 0.0000 0.5000-0.5000 (   512 PWs)   bands (ev):

    -3.5836   0.9950   2.6094   5.1943

          k = 0.7500 0.2500 0.2500 (   510 PWs)   bands (ev):

    -2.8746   0.0484   2.8602   4.2709

          k = 0.0000 0.5000 0.5000 (   512 PWs)   bands (ev):

    -3.5836   0.9950   2.6094   5.1943

          k = 0.7500 0.2500 1.2500 (   510 PWs)   bands (ev):

    -2.8746   0.0484   2.8602   4.2709

          k = 0.0000-0.5000-0.5000 (   512 PWs)   bands (ev):

    -3.5836   0.9950   2.6094   5.1943

          k = 0.7500-0.7500 0.2500 (   510 PWs)   bands (ev):

    -2.8746   0.0484   2.8602   4.2709

          k = 0.5000-0.5000 0.0000 (   512 PWs)   bands (ev):

    -3.5836   0.9950   2.6094   5.1943

          k = 1.2500-0.7500 0.7500 (   516 PWs)   bands (ev):

    -4.8873   2.5377   5.7851   5.7851

          k =-1.0000 0.0000 0.0000 (   524 PWs)   bands (ev):

    -1.4019  -1.4019   3.5941   3.5941

          k =-0.2500-0.2500 0.7500 (   510 PWs)   bands (ev):

    -2.8746   0.0484   2.8602   4.2709

          k = 0.5000-1.0000 0.0000 (   516 PWs)   bands (ev):

    -1.2112  -1.2112   2.4893   2.4893

          k = 1.2500-1.2500 0.7500 (   516 PWs)   bands (ev):

    -4.8873   2.5377   5.7851   5.7851

          k =-1.0000-0.5000 0.0000 (   516 PWs)   bands (ev):

[...]
     number of atomic types    =            1
     number of electrons       =         8.00
     number of Kohn-Sham states=            4
     kinetic-energy cutoff     =      24.0000  Ry
     charge density cutoff     =      96.0000  Ry
     Exchange-correlation      = PZ ( 1  1  0  0 0 0)

     celldm(1)=  10.100000  celldm(2)=   0.000000  celldm(3)=   0.000000
     celldm(4)=   0.000000  celldm(5)=   0.000000  celldm(6)=   0.000000

     crystal axes: (cart. coord. in units of alat)
               a(1) = (  -0.500000   0.000000   0.500000 )  
               a(2) = (   0.000000   0.500000   0.500000 )  
               a(3) = (  -0.500000   0.500000   0.000000 )  

     reciprocal axes: (cart. coord. in units 2 pi/alat)
               b(1) = ( -1.000000 -1.000000  1.000000 )  
               b(2) = (  1.000000  1.000000  1.000000 )  
               b(3) = ( -1.000000  1.000000 -1.000000 )  


     PseudoPot. # 1 for Si read from file:
     ../Si.pz-rrkj.UPF
     MD5 check sum: 884b380b739b48e9cd334294cddc9a8d
     Pseudo is Norm-conserving, Zval =  4.0
     Generated using "atomic" code by A. Dal Corso (espresso distribution)
     Using radial grid of 1141 points,  2 beta functions with: 
                l(1) =   0
                l(2) =   1

     atomic species   valence    mass     pseudopotential
        Si             4.00    28.08600     Si( 1.00)

     48 Sym. Ops., with inversion, found



   Cartesian axes

     site n.     atom                  positions (alat units)
         1           Si  tau(   1) = (   0.0000000   0.0000000   0.0000000  )
         2           Si  tau(   2) = (   0.2500000   0.2500000   0.2500000  )

     number of k points=    32
                       cart. coord. in units 2pi/alat
        k(    1) = (   0.0000000   0.0000000   0.0000000), wk =   0.0312500
        k(    2) = (  -0.5000000  -1.0000000   0.0000000), wk =   0.0000000
        k(    3) = (  -0.2500000   0.2500000  -0.2500000), wk =   0.2500000
        k(    4) = (  -0.7500000  -0.7500000  -0.2500000), wk =   0.0000000
        k(    5) = (   0.5000000  -0.5000000   0.5000000), wk =   0.1250000
        k(    6) = (   0.0000000  -1.5000000   0.5000000), wk =   0.0000000
        k(    7) = (   0.0000000   0.5000000   0.0000000), wk =   0.1250000
        k(    8) = (  -0.5000000  -0.5000000   0.0000000), wk =   0.0000000
        k(    9) = (   0.7500000  -0.2500000   0.7500000), wk =   0.2500000
        k(   10) = (   0.2500000  -1.2500000   0.7500000), wk =   0.0000000
        k(   11) = (   0.5000000   0.0000000   0.5000000), wk =   0.1250000
        k(   12) = (   0.0000000  -1.0000000   0.5000000), wk =   0.0000000
        k(   13) = (   0.0000000  -1.0000000   0.0000000), wk =   0.0625000
        k(   14) = (  -0.5000000  -2.0000000   0.0000000), wk =   0.0000000
        k(   15) = (  -0.5000000  -1.0000000   0.0000000), wk =   0.0312500
        k(   16) = (  -1.0000000  -2.0000000   0.0000000), wk =   0.0000000
        k(   17) = (   0.5000000   0.0000000   0.0000000), wk =   0.0625000
        k(   18) = (   0.0000000  -1.0000000   0.0000000), wk =   0.0000000
        k(   19) = (  -0.7500000   0.2500000  -0.7500000), wk =   0.2500000
        k(   20) = (  -1.2500000  -0.7500000  -0.7500000), wk =   0.0000000
        k(   21) = (  -0.2500000   0.7500000   0.7500000), wk =   0.2500000
        k(   22) = (  -0.7500000  -0.2500000   0.7500000), wk =   0.0000000
        k(   23) = (  -0.5000000   0.0000000  -0.5000000), wk =   0.1250000
        k(   24) = (  -1.0000000  -1.0000000  -0.5000000), wk =   0.0000000
        k(   25) = (   0.0000000   0.5000000   0.5000000), wk =   0.1250000
        k(   26) = (  -0.5000000  -0.5000000   0.5000000), wk =   0.0000000
        k(   27) = (  -1.0000000   0.0000000   0.0000000), wk =   0.0312500
        k(   28) = (  -1.5000000  -1.0000000   0.0000000), wk =   0.0000000
        k(   29) = (   0.0000000   1.0000000   0.5000000), wk =   0.1250000
        k(   30) = (  -0.5000000   0.0000000   0.5000000), wk =   0.0000000
        k(   31) = (   0.5000000   1.0000000   0.0000000), wk =   0.0312500
        k(   32) = (   0.0000000   0.0000000   0.0000000), wk =   0.0000000

     Dense  grid:     4111 G-vectors     FFT dimensions: (  24,  24,  24)

     Estimated max dynamical RAM per process >       0.59 MB

     Estimated total dynamical RAM >       2.34 MB

     The potential is recalculated from file :
     ./tmp/_ph0/silicon.save/charge-density

     Starting wfcs are    8 atomic wfcs

     Band Structure Calculation
     Davidson diagonalization with overlap

     ethr =  1.25E-10,  avg # of iterations =  9.4

     total cpu time spent up to now is        2.8 secs

     End of band structure calculation

          k = 0.0000 0.0000 0.0000 (   531 PWs)   bands (ev):

    -5.7223   6.5742   6.5742   6.5742

          k =-0.5000-1.0000 0.0000 (   516 PWs)   bands (ev):

    -1.2112  -1.2112   2.4893   2.4893

          k =-0.2500 0.2500-0.2500 (   516 PWs)   bands (ev):

    -4.8873   2.5377   5.7851   5.7851

          k =-0.7500-0.7500-0.2500 (   510 PWs)   bands (ev):

    -2.8746   0.0484   2.8602   4.2709

          k = 0.5000-0.5000 0.5000 (   502 PWs)   bands (ev):

    -3.2592  -0.6509   5.3377   5.3377

          k = 0.0000-1.5000 0.5000 (   512 PWs)   bands (ev):

    -3.5836   0.9950   2.6094   5.1943

          k = 0.0000 0.5000 0.0000 (   504 PWs)   bands (ev):

    -4.5945   3.0517   4.5932   4.5932

          k =-0.5000-0.5000 0.0000 (   512 PWs)   bands (ev):

    -3.5836   0.9950   2.6094   5.1943

          k = 0.7500-0.2500 0.7500 (   510 PWs)   bands (ev):

    -2.8746   0.0484   2.8602   4.2709

          k = 0.2500-1.2500 0.7500 (   510 PWs)   bands (ev):

    -2.8746   0.0484   2.8602   4.2709

          k = 0.5000 0.0000 0.5000 (   512 PWs)   bands (ev):

    -3.5836   0.9950   2.6094   5.1943

          k = 0.0000-1.0000 0.5000 (   516 PWs)   bands (ev):

    -1.2112  -1.2112   2.4893   2.4893

          k = 0.0000-1.0000 0.0000 (   524 PWs)   bands (ev):

    -1.4019  -1.4019   3.5941   3.5941

          k =-0.5000-2.0000 0.0000 (   504 PWs)   bands (ev):

    -4.5945   3.0517   4.5932   4.5932

          k =-0.5000-1.0000 0.0000 (   516 PWs)   bands (ev):

    -1.2112  -1.2112   2.4893   2.4893

          k =-1.0000-2.0000 0.0000 (   524 PWs)   bands (ev):

    -1.4019  -1.4019   3.5941   3.5941

          k = 0.5000 0.0000 0.0000 (   504 PWs)   bands (ev):

    -4.5945   3.0517   4.5932   4.5932

          k = 0.0000-1.0000 0.0000 (   524 PWs)   bands (ev):

    -1.4019  -1.4019   3.5941   3.5941

          k =-0.7500 0.2500-0.7500 (   510 PWs)   bands (ev):

    -2.8746   0.0484   2.8602   4.2709

          k =-1.2500-0.7500-0.7500 (   516 PWs)   bands (ev):

    -4.8873   2.5377   5.7851   5.7851

          k =-0.2500 0.7500 0.7500 (   510 PWs)   bands (ev):

    -2.8746   0.0484   2.8602   4.2709

          k =-0.7500-0.2500 0.7500 (   510 PWs)   bands (ev):

    -2.8746   0.0484   2.8602   4.2709

          k =-0.5000 0.0000-0.5000 (   512 PWs)   bands (ev):

    -3.5836   0.9950   2.6094   5.1943

          k =-1.0000-1.0000-0.5000 (   504 PWs)   bands (ev):

    -4.5945   3.0517   4.5932   4.5932

          k = 0.0000 0.5000 0.5000 (   512 PWs)   bands (ev):

    -3.5836   0.9950   2.6094   5.1943

          k =-0.5000-0.5000 0.5000 (   502 PWs)   bands (ev):

    -3.2592  -0.6509   5.3377   5.3377

          k =-1.0000 0.0000 0.0000 (   524 PWs)   bands (ev):

    -1.4019  -1.4019   3.5941   3.5941

          k =-1.5000-1.0000 0.0000 (   516 PWs)   bands (ev):

    -1.2112  -1.2112   2.4893   2.4893

          k = 0.0000 1.0000 0.5000 (   516 PWs)   bands (ev):

    -1.2112  -1.2112   2.4893   2.4893

          k =-0.5000 0.0000 0.5000 (   512 PWs)   bands (ev):

    -3.5836   0.9950   2.6094   5.1943

          k = 0.5000 1.0000 0.0000 (   516 PWs)   bands (ev):

    -1.2112  -1.2112   2.4893   2.4893

          k = 0.0000 0.0000 0.0000 (   531 PWs)   bands (ev):

    -5.7223   6.5742   6.5742   6.5742

     highest occupied level (ev):     6.5742

     Writing output data file silicon.save/

     Ph                                                                         

     bravais-lattice index     =            2
     lattice parameter (alat)  =      10.1000  a.u.
     unit-cell volume          =     257.5752 (a.u.)^3
     number of atoms/cell      =            2
     number of atomic types    =            1
     kinetic-energy cut-off    =      24.0000  Ry
     charge density cut-off    =      96.0000  Ry
     convergence threshold     =      1.0E-16
     beta                      =       0.7000
     number of iterations used =            4
     Exchange-correlation      = PZ ( 1  1  0  0 0 0)


     celldm(1)=   10.10000  celldm(2)=    0.00000  celldm(3)=    0.00000
     celldm(4)=    0.00000  celldm(5)=    0.00000  celldm(6)=    0.00000

     crystal axes: (cart. coord. in units of alat)
               a(1) = ( -0.5000  0.0000  0.5000 )  
               a(2) = (  0.0000  0.5000  0.5000 )  
               a(3) = ( -0.5000  0.5000  0.0000 )  

     reciprocal axes: (cart. coord. in units 2 pi/alat)
               b(1) = ( -1.0000 -1.0000  1.0000 )  
               b(2) = (  1.0000  1.0000  1.0000 )  
               b(3) = ( -1.0000  1.0000 -1.0000 )  


     Atoms inside the unit cell: 

     Cartesian axes

     site n.  atom      mass           positions (alat units)
        1     Si  28.0860   tau(    1) = (    0.00000    0.00000    0.00000  )
        2     Si  28.0860   tau(    2) = (    0.25000    0.25000    0.25000  )

     Computing dynamical matrix for 
                    q = (  -0.5000000  -1.0000000   0.0000000 )

      8 Sym.Ops. (no q -> -q+G )


     G cutoff =  248.0586  (   1028 G-vectors)     FFT grid: ( 24, 24, 24)
     number of k points=    32

     PseudoPot. # 1 for Si read from file:
     ../Si.pz-rrkj.UPF
     MD5 check sum: 884b380b739b48e9cd334294cddc9a8d
     Pseudo is Norm-conserving, Zval =  4.0
     Generated using "atomic" code by A. Dal Corso (espresso distribution)
     Using radial grid of 1141 points,  2 beta functions with: 
                l(1) =   0
                l(2) =   1


     Atomic displacements:
     There are   3 irreducible representations

     Representation     1      2 modes -  To be done

     Representation     2      2 modes -  To be done

     Representation     3      2 modes -  To be done



     Alpha used in Ewald sum =   1.0000
     PHONON       :     48.81s CPU     56.28s WALL



     Representation #  1 modes #   1  2

     Self-consistent Calculation

      iter #   1 total cpu time :    56.5 secs   av.it.:   5.7
      thresh= 1.000E-02 alpha_mix =  0.700 |ddv_scf|^2 =  6.131E-06

      iter #   2 total cpu time :    56.7 secs   av.it.:   9.0
      thresh= 2.476E-04 alpha_mix =  0.700 |ddv_scf|^2 =  7.377E-06

      iter #   3 total cpu time :    57.0 secs   av.it.:   8.5
      thresh= 2.716E-04 alpha_mix =  0.700 |ddv_scf|^2 =  7.260E-10

      iter #   4 total cpu time :    57.2 secs   av.it.:   8.7
      thresh= 2.694E-06 alpha_mix =  0.700 |ddv_scf|^2 =  2.500E-11

      iter #   5 total cpu time :    57.5 secs   av.it.:   8.5
      thresh= 5.000E-07 alpha_mix =  0.700 |ddv_scf|^2 =  5.404E-14

      iter #   6 total cpu time :    57.7 secs   av.it.:   8.4
      thresh= 2.325E-08 alpha_mix =  0.700 |ddv_scf|^2 =  1.458E-15

      iter #   7 total cpu time :    58.0 secs   av.it.:   9.1
      thresh= 3.818E-09 alpha_mix =  0.700 |ddv_scf|^2 =  6.614E-16

      iter #   8 total cpu time :    58.2 secs   av.it.:   8.6
      thresh= 2.572E-09 alpha_mix =  0.700 |ddv_scf|^2 =  9.480E-18

     End of self-consistent calculation

     Convergence has been achieved 


     Representation #  2 modes #   3  4

     Self-consistent Calculation

      iter #   1 total cpu time :    58.4 secs   av.it.:   5.6
      thresh= 1.000E-02 alpha_mix =  0.700 |ddv_scf|^2 =  3.161E-06

      iter #   2 total cpu time :    58.6 secs   av.it.:   9.1
      thresh= 1.778E-04 alpha_mix =  0.700 |ddv_scf|^2 =  2.223E-06

      iter #   3 total cpu time :    58.9 secs   av.it.:   8.5
      thresh= 1.491E-04 alpha_mix =  0.700 |ddv_scf|^2 =  2.058E-10

      iter #   4 total cpu time :    59.1 secs   av.it.:   8.7
      thresh= 1.435E-06 alpha_mix =  0.700 |ddv_scf|^2 =  1.310E-11

      iter #   5 total cpu time :    59.3 secs   av.it.:   8.6
      thresh= 3.620E-07 alpha_mix =  0.700 |ddv_scf|^2 =  2.123E-14

      iter #   6 total cpu time :    59.6 secs   av.it.:   9.2
      thresh= 1.457E-08 alpha_mix =  0.700 |ddv_scf|^2 =  3.016E-16

      iter #   7 total cpu time :    59.9 secs   av.it.:   9.2
      thresh= 1.737E-09 alpha_mix =  0.700 |ddv_scf|^2 =  8.024E-17

     End of self-consistent calculation

     Convergence has been achieved 


     Representation #  3 modes #   5  6

     Self-consistent Calculation

      iter #   1 total cpu time :    60.1 secs   av.it.:   5.7
      thresh= 1.000E-02 alpha_mix =  0.700 |ddv_scf|^2 =  3.832E-06

      iter #   2 total cpu time :    60.4 secs   av.it.:   9.2
      thresh= 1.957E-04 alpha_mix =  0.700 |ddv_scf|^2 =  2.767E-06

      iter #   3 total cpu time :    60.7 secs   av.it.:   8.6
      thresh= 1.663E-04 alpha_mix =  0.700 |ddv_scf|^2 =  1.857E-10

      iter #   4 total cpu time :    61.0 secs   av.it.:   8.9
      thresh= 1.363E-06 alpha_mix =  0.700 |ddv_scf|^2 =  2.194E-11

      iter #   5 total cpu time :    61.2 secs   av.it.:   8.6
      thresh= 4.684E-07 alpha_mix =  0.700 |ddv_scf|^2 =  1.155E-14

      iter #   6 total cpu time :    61.5 secs   av.it.:   9.2
      thresh= 1.075E-08 alpha_mix =  0.700 |ddv_scf|^2 =  2.149E-16

      iter #   7 total cpu time :    61.8 secs   av.it.:   9.3
      thresh= 1.466E-09 alpha_mix =  0.700 |ddv_scf|^2 =  1.304E-17

     End of self-consistent calculation

     Convergence has been achieved 

     Number of q in the star =    6
     List of q in the star:
          1  -0.500000000  -1.000000000   0.000000000
          2   0.000000000   1.000000000   0.500000000
          3   0.000000000  -1.000000000  -0.500000000
          4   0.500000000   1.000000000   0.000000000
          5  -1.000000000  -0.500000000   0.000000000
          6   0.000000000  -0.500000000  -1.000000000

     Diagonalizing the dynamical matrix

     q = (   -0.500000000  -1.000000000   0.000000000 ) 

 **************************************************************************
     freq (    1) =       6.265548 [THz] =     208.996199 [cm-1]
     freq (    2) =       6.265548 [THz] =     208.996199 [cm-1]
     freq (    3) =      10.858076 [THz] =     362.186442 [cm-1]
     freq (    4) =      10.858076 [THz] =     362.186442 [cm-1]
     freq (    5) =      14.241682 [THz] =     475.051365 [cm-1]
     freq (    6) =      14.241682 [THz] =     475.051365 [cm-1]
 **************************************************************************

     init_run     :      0.12s CPU      0.12s WALL (       7 calls)
     electrons    :      2.33s CPU      2.64s WALL (       7 calls)

     Called by init_run:
     wfcinit      :      0.00s CPU      0.00s WALL (       7 calls)
     potinit      :      0.00s CPU      0.00s WALL (       7 calls)
     hinit0       :      0.10s CPU      0.10s WALL (       7 calls)

     Called by electrons:
     c_bands      :      2.33s CPU      2.64s WALL (       7 calls)
     v_of_rho     :      0.00s CPU      0.00s WALL (       8 calls)

     Called by c_bands:
     init_us_2    :      0.17s CPU      0.20s WALL (    7367 calls)
     cegterg      :      1.95s CPU      2.20s WALL (     292 calls)

     Called by sum_band:

     Called by *egterg:
     h_psi        :     36.07s CPU     41.61s WALL (   75185 calls)
     g_psi        :      0.02s CPU      0.02s WALL (    2822 calls)
     cdiaghg      :      0.16s CPU      0.18s WALL (    3114 calls)

     Called by h_psi:
     h_psi:pot    :     35.80s CPU     41.30s WALL (   75185 calls)
     h_psi:calbec :      1.27s CPU      1.46s WALL (   75185 calls)
     vloc_psi     :     33.57s CPU     38.73s WALL (   75185 calls)
     add_vuspsi   :      0.51s CPU      0.58s WALL (   75185 calls)

     General routines
     calbec       :      1.82s CPU      2.11s WALL (  152224 calls)
     fft          :      0.37s CPU      0.38s WALL (    1154 calls)
     ffts         :      0.11s CPU      0.13s WALL (    1164 calls)
     fftw         :     35.74s CPU     41.21s WALL (  661590 calls)
     davcio       :      0.30s CPU      0.35s WALL (   37818 calls)

     Parallel routines
     fft_scatt_xy :      5.66s CPU      6.57s WALL (  663908 calls)
     fft_scatt_yz :     12.27s CPU     14.07s WALL (  663908 calls)

     PHONON       :     53.65s CPU   1m 1.77s WALL

     INITIALIZATION: 
     phq_setup    :      0.03s CPU      0.03s WALL (       8 calls)
     phq_init     :      0.19s CPU      0.20s WALL (       8 calls)

     phq_init     :      0.19s CPU      0.20s WALL (       8 calls)
     init_vloc    :      0.01s CPU      0.01s WALL (       8 calls)
     init_us_1    :      0.05s CPU      0.05s WALL (       8 calls)

     DYNAMICAL MATRIX:
     dynmat0      :      0.04s CPU      0.04s WALL (       8 calls)
     phqscf       :     49.14s CPU     56.60s WALL (       8 calls)
     dynmatrix    :      0.02s CPU      0.03s WALL (       8 calls)

     phqscf       :     49.14s CPU     56.60s WALL (       8 calls)
     solve_linter :     48.99s CPU     56.41s WALL (      32 calls)
     drhodv       :      0.10s CPU      0.13s WALL (      32 calls)

     dynmat0      :      0.04s CPU      0.04s WALL (       8 calls)
     dynmat_us    :      0.03s CPU      0.03s WALL (       8 calls)
     d2ionq       :      0.00s CPU      0.00s WALL (       8 calls)

     dynmat_us    :      0.03s CPU      0.03s WALL (       8 calls)

     phqscf       :     49.14s CPU     56.60s WALL (       8 calls)
     solve_linter :     48.99s CPU     56.41s WALL (      32 calls)

     solve_linter :     48.99s CPU     56.41s WALL (      32 calls)
     dvqpsi_us    :      0.67s CPU      0.76s WALL (     972 calls)
     ortho        :      0.16s CPU      0.18s WALL (    7590 calls)
     cgsolve      :     38.35s CPU     44.29s WALL (    7590 calls)
     incdrhoscf   :      3.80s CPU      4.39s WALL (    7566 calls)
     vpsifft      :      3.30s CPU      3.83s WALL (    6498 calls)
     dv_of_drho   :      0.38s CPU      0.39s WALL (     374 calls)
     mix_pot      :      0.10s CPU      0.14s WALL (     260 calls)
     psymdvscf    :      2.46s CPU      2.52s WALL (     254 calls)

     dvqpsi_us    :      0.67s CPU      0.76s WALL (     972 calls)
     dvqpsi_us_on :      0.05s CPU      0.05s WALL (     972 calls)

     cgsolve      :     38.35s CPU     44.29s WALL (    7590 calls)
     ch_psi       :     37.34s CPU     43.12s WALL (   71779 calls)

     ch_psi       :     37.34s CPU     43.12s WALL (   71779 calls)
     h_psi        :     36.07s CPU     41.61s WALL (   75185 calls)
     last         :      2.23s CPU      2.57s WALL (   71779 calls)

     h_psi        :     36.07s CPU     41.61s WALL (   75185 calls)
     add_vuspsi   :      0.51s CPU      0.58s WALL (   75185 calls)

     incdrhoscf   :      3.80s CPU      4.39s WALL (    7566 calls)


      General routines
     calbec       :      1.82s CPU      2.11s WALL (  152224 calls)
     fft          :      0.37s CPU      0.38s WALL (    1154 calls)
     ffts         :      0.11s CPU      0.13s WALL (    1164 calls)
     fftw         :     35.74s CPU     41.21s WALL (  661590 calls)
     davcio       :      0.30s CPU      0.35s WALL (   37818 calls)
     write_rec    :      0.26s CPU      0.63s WALL (     292 calls)


     PHONON       :     53.65s CPU   1m 1.77s WALL


   This run was terminated on:  10:29:47  25Jun2019            

=------------------------------------------------------------------------------=
   JOB DONE.
=------------------------------------------------------------------------------=
