
     Program PHONON v.6.4.1 starts on 25Jun2019 at 10:29:49 

     This program is part of the open-source Quantum ESPRESSO suite
     for quantum simulation of materials; please cite
         "P. Giannozzi et al., J. Phys.:Condens. Matter 21 395502 (2009);
         "P. Giannozzi et al., J. Phys.:Condens. Matter 29 465901 (2017);
          URL http://www.quantum-espresso.org", 
     in publications or presentations arising from this work. More details at
     http://www.quantum-espresso.org/quote

     Parallel version (MPI), running on     4 processors

     MPI processes distributed on     1 nodes
     R & G space division:  proc/nbgrp/npool/nimage =       4

     Reading data from directory:
     ./tmp/silicon.save/

     IMPORTANT: XC functional enforced from input :
     Exchange-correlation      = PZ ( 1  1  0  0 0 0)
     Any further DFT definition will be discarded
     Please, verify this is what you really want


     Parallelization info
     --------------------
     sticks:   dense  smooth     PW     G-vecs:    dense   smooth      PW
     Min          87      87     27                 1069     1069     186
     Max          88      88     28                 1071     1071     189
     Sum         349     349    109                 4279     4279     749



     Dynamical matrices for ( 4, 4, 4)  uniform grid of q-points
     (   8 q-points):
       N         xq(1)         xq(2)         xq(3) 
       1   0.000000000   0.000000000   0.000000000
       2  -0.250000000   0.250000000  -0.250000000
       3   0.500000000  -0.500000000   0.500000000
       4   0.000000000   0.500000000   0.000000000
       5   0.750000000  -0.250000000   0.750000000
       6   0.500000000   0.000000000   0.500000000
       7   0.000000000  -1.000000000   0.000000000
       8  -0.500000000  -1.000000000   0.000000000

     Calculation of q =    0.0000000   0.0000000   0.0000000

     Ph                                                                         

     bravais-lattice index     =            2
     lattice parameter (alat)  =      10.2000  a.u.
     unit-cell volume          =     265.3020 (a.u.)^3
     number of atoms/cell      =            2
     number of atomic types    =            1
     kinetic-energy cut-off    =      24.0000  Ry
     charge density cut-off    =      96.0000  Ry
     convergence threshold     =      1.0E-16
     beta                      =       0.7000
     number of iterations used =            4
     Exchange-correlation      = PZ ( 1  1  0  0 0 0)


     celldm(1)=   10.20000  celldm(2)=    0.00000  celldm(3)=    0.00000
     celldm(4)=    0.00000  celldm(5)=    0.00000  celldm(6)=    0.00000

     crystal axes: (cart. coord. in units of alat)
               a(1) = ( -0.5000  0.0000  0.5000 )  
               a(2) = (  0.0000  0.5000  0.5000 )  
               a(3) = ( -0.5000  0.5000  0.0000 )  

     reciprocal axes: (cart. coord. in units 2 pi/alat)
               b(1) = ( -1.0000 -1.0000  1.0000 )  
               b(2) = (  1.0000  1.0000  1.0000 )  
               b(3) = ( -1.0000  1.0000 -1.0000 )  


     Atoms inside the unit cell: 

     Cartesian axes

     site n.  atom      mass           positions (alat units)
        1     Si  28.0860   tau(    1) = (    0.00000    0.00000    0.00000  )
        2     Si  28.0860   tau(    2) = (    0.25000    0.25000    0.25000  )

     Computing dynamical matrix for 
                    q = (   0.0000000   0.0000000   0.0000000 )

     49 Sym.Ops. (with q -> -q+G )


     G cutoff =  252.9949  (   1069 G-vectors)     FFT grid: ( 24, 24, 24)
     number of k points=     8

     PseudoPot. # 1 for Si read from file:
     ../Si.pz-rrkj.UPF
     MD5 check sum: 884b380b739b48e9cd334294cddc9a8d
     Pseudo is Norm-conserving, Zval =  4.0
     Generated using "atomic" code by A. Dal Corso (espresso distribution)
     Using radial grid of 1141 points,  2 beta functions with: 
                l(1) =   0
                l(2) =   1

     Mode symmetry, O_h (m-3m)  point group:


     Electric field:
     Dielectric constant
     Born effective charges in two ways 


     Atomic displacements:
     There are   2 irreducible representations

     Representation     1      3 modes -T_2g G_25' G_5+  To be done

     Representation     2      3 modes -T_1u G_15  G_4-  To be done



     Alpha used in Ewald sum =   1.0000
     PHONON       :      0.33s CPU      0.34s WALL


     Electric Fields Calculation

      iter #   1 total cpu time :     0.8 secs   av.it.:   5.7
      thresh= 1.000E-02 alpha_mix =  0.700 |ddv_scf|^2 =  5.773E-07

      iter #   2 total cpu time :     1.0 secs   av.it.:   9.0
      thresh= 7.598E-05 alpha_mix =  0.700 |ddv_scf|^2 =  2.532E-08

      iter #   3 total cpu time :     1.2 secs   av.it.:   9.1
      thresh= 1.591E-05 alpha_mix =  0.700 |ddv_scf|^2 =  4.456E-10

      iter #   4 total cpu time :     1.4 secs   av.it.:   9.2
      thresh= 2.111E-06 alpha_mix =  0.700 |ddv_scf|^2 =  2.296E-12

      iter #   5 total cpu time :     1.7 secs   av.it.:   8.9
      thresh= 1.515E-07 alpha_mix =  0.700 |ddv_scf|^2 =  9.550E-16

      iter #   6 total cpu time :     2.0 secs   av.it.:   9.0
      thresh= 3.090E-09 alpha_mix =  0.700 |ddv_scf|^2 =  1.363E-17

     End of electric fields calculation

          Dielectric constant in cartesian axis 

          (      24.590150646       0.000000000       0.000000000 )
          (       0.000000000      24.590150646      -0.000000000 )
          (       0.000000000      -0.000000000      24.590150646 )

          Effective charges (d Force / dE) in cartesian axis

           atom      1   Si 
      Ex  (       -1.22722       -0.00000        0.00000 )
      Ey  (       -0.00000       -1.22722       -0.00000 )
      Ez  (        0.00000       -0.00000       -1.22722 )
           atom      2   Si 
      Ex  (       -1.22722        0.00000        0.00000 )
      Ey  (        0.00000       -1.22722       -0.00000 )
      Ez  (        0.00000       -0.00000       -1.22722 )


     Representation #  1 modes #   1  2  3

     Self-consistent Calculation

      iter #   1 total cpu time :     2.4 secs   av.it.:   4.8
      thresh= 1.000E-02 alpha_mix =  0.700 |ddv_scf|^2 =  1.090E-07

      iter #   2 total cpu time :     2.8 secs   av.it.:   8.6
      thresh= 3.302E-05 alpha_mix =  0.700 |ddv_scf|^2 =  1.843E-09

      iter #   3 total cpu time :     3.2 secs   av.it.:   8.8
      thresh= 4.293E-06 alpha_mix =  0.700 |ddv_scf|^2 =  2.625E-11

      iter #   4 total cpu time :     3.6 secs   av.it.:   8.2
      thresh= 5.123E-07 alpha_mix =  0.700 |ddv_scf|^2 =  1.805E-14

      iter #   5 total cpu time :     4.0 secs   av.it.:   9.0
      thresh= 1.343E-08 alpha_mix =  0.700 |ddv_scf|^2 =  1.279E-16

      iter #   6 total cpu time :     4.4 secs   av.it.:   8.8
      thresh= 1.131E-09 alpha_mix =  0.700 |ddv_scf|^2 =  2.008E-18

     End of self-consistent calculation

     Convergence has been achieved 


     Representation #  2 modes #   4  5  6

     Self-consistent Calculation

      iter #   1 total cpu time :     4.7 secs   av.it.:   5.2
      thresh= 1.000E-02 alpha_mix =  0.700 |ddv_scf|^2 =  8.101E-08

      iter #   2 total cpu time :     5.2 secs   av.it.:   9.2
      thresh= 2.846E-05 alpha_mix =  0.700 |ddv_scf|^2 =  3.369E-09

      iter #   3 total cpu time :     5.6 secs   av.it.:   9.3
      thresh= 5.805E-06 alpha_mix =  0.700 |ddv_scf|^2 =  3.513E-11

      iter #   4 total cpu time :     5.9 secs   av.it.:   9.1
      thresh= 5.927E-07 alpha_mix =  0.700 |ddv_scf|^2 =  6.889E-14

      iter #   5 total cpu time :     6.4 secs   av.it.:   9.3
      thresh= 2.625E-08 alpha_mix =  0.700 |ddv_scf|^2 =  8.720E-16

      iter #   6 total cpu time :     6.8 secs   av.it.:   9.2
      thresh= 2.953E-09 alpha_mix =  0.700 |ddv_scf|^2 =  6.054E-19

     End of self-consistent calculation

     Convergence has been achieved 

     Number of q in the star =    1
     List of q in the star:
          1   0.000000000   0.000000000   0.000000000

          Dielectric constant in cartesian axis 

          (      24.590150646       0.000000000       0.000000000 )
          (       0.000000000      24.590150646      -0.000000000 )
          (       0.000000000      -0.000000000      24.590150646 )

          Effective charges (d Force / dE) in cartesian axis

           atom      1   Si 
      Ex  (       -1.22722       -0.00000        0.00000 )
      Ey  (       -0.00000       -1.22722       -0.00000 )
      Ez  (        0.00000       -0.00000       -1.22722 )
           atom      2   Si 
      Ex  (       -1.22722        0.00000        0.00000 )
      Ey  (        0.00000       -1.22722       -0.00000 )
      Ez  (        0.00000       -0.00000       -1.22722 )

          Effective charges (d P / du) in cartesian axis 

           atom      1   Si 
      Px  (       -1.22722       -0.00000       -0.00000 )
      Py  (       -0.00000       -1.22722        0.00000 )
      Pz  (        0.00000        0.00000       -1.22722 )
           atom      2   Si 
      Px  (       -1.22722        0.00000        0.00000 )
      Py  (        0.00000       -1.22722        0.00000 )
      Pz  (        0.00000        0.00000       -1.22722 )

     Diagonalizing the dynamical matrix

     q = (    0.000000000   0.000000000   0.000000000 ) 

 **************************************************************************
     freq (    1) =       0.127633 [THz] =       4.257370 [cm-1]
     freq (    2) =       0.127633 [THz] =       4.257370 [cm-1]
     freq (    3) =       0.127633 [THz] =       4.257370 [cm-1]
     freq (    4) =      15.524747 [THz] =     517.849807 [cm-1]
     freq (    5) =      15.524747 [THz] =     517.849807 [cm-1]
     freq (    6) =      15.524747 [THz] =     517.849807 [cm-1]
 **************************************************************************

     Mode symmetry, O_h (m-3m)  point group:

     freq (  1 -  3) =          4.3  [cm-1]   --> T_1u G_15  G_4- I  
     freq (  4 -  6) =        517.8  [cm-1]   --> T_2g G_25' G_5+ R  

     Calculation of q =   -0.2500000   0.2500000  -0.2500000

     Subspace diagonalization in iterative solution of the eigenvalue problem:
     a serial algorithm will be used


     Parallelization info
     --------------------
     sticks:   dense  smooth     PW     G-vecs:    dense   smooth      PW
     Min          87      87     30                 1068     1068     222
     Max          88      88     31                 1071     1071     225
     Sum         349     349    121                 4279     4279     893


     Title: 
     Ph                                                                         


     bravais-lattice index     =            2
     lattice parameter (alat)  =      10.2000  a.u.
     unit-cell volume          =     265.3020 (a.u.)^3
     number of atoms/cell      =            2
     number of atomic types    =            1
     number of electrons       =         8.00
     number of Kohn-Sham states=            4
     kinetic-energy cutoff     =      24.0000  Ry
     charge density cutoff     =      96.0000  Ry
     Exchange-correlation      = PZ ( 1  1  0  0 0 0)

     celldm(1)=  10.200000  celldm(2)=   0.000000  celldm(3)=   0.000000
     celldm(4)=   0.000000  celldm(5)=   0.000000  celldm(6)=   0.000000

     crystal axes: (cart. coord. in units of alat)
               a(1) = (  -0.500000   0.000000   0.500000 )  
               a(2) = (   0.000000   0.500000   0.500000 )  
               a(3) = (  -0.500000   0.500000   0.000000 )  

     reciprocal axes: (cart. coord. in units 2 pi/alat)
               b(1) = ( -1.000000 -1.000000  1.000000 )  
               b(2) = (  1.000000  1.000000  1.000000 )  
               b(3) = ( -1.000000  1.000000 -1.000000 )  


     PseudoPot. # 1 for Si read from file:
     ../Si.pz-rrkj.UPF
     MD5 check sum: 884b380b739b48e9cd334294cddc9a8d
     Pseudo is Norm-conserving, Zval =  4.0
     Generated using "atomic" code by A. Dal Corso (espresso distribution)
     Using radial grid of 1141 points,  2 beta functions with: 
                l(1) =   0
                l(2) =   1

     atomic species   valence    mass     pseudopotential
        Si             4.00    28.08600     Si( 1.00)

     48 Sym. Ops., with inversion, found



   Cartesian axes

     site n.     atom                  positions (alat units)
         1           Si  tau(   1) = (   0.0000000   0.0000000   0.0000000  )
         2           Si  tau(   2) = (   0.2500000   0.2500000   0.2500000  )

     number of k points=    40
                       cart. coord. in units 2pi/alat
        k(    1) = (   0.0000000   0.0000000   0.0000000), wk =   0.0312500
        k(    2) = (  -0.2500000   0.2500000  -0.2500000), wk =   0.0000000
        k(    3) = (  -0.2500000   0.2500000  -0.2500000), wk =   0.0312500
        k(    4) = (  -0.5000000   0.5000000  -0.5000000), wk =   0.0000000
        k(    5) = (   0.5000000  -0.5000000   0.5000000), wk =   0.0312500
        k(    6) = (   0.2500000  -0.2500000   0.2500000), wk =   0.0000000
        k(    7) = (   0.0000000   0.5000000   0.0000000), wk =   0.0937500
        k(    8) = (  -0.2500000   0.7500000  -0.2500000), wk =   0.0000000
        k(    9) = (   0.7500000  -0.2500000   0.7500000), wk =   0.0937500
        k(   10) = (   0.5000000   0.0000000   0.5000000), wk =   0.0000000
        k(   11) = (   0.5000000   0.0000000   0.5000000), wk =   0.0937500
        k(   12) = (   0.2500000   0.2500000   0.2500000), wk =   0.0000000
        k(   13) = (   0.0000000  -1.0000000   0.0000000), wk =   0.0937500
        k(   14) = (  -0.2500000  -0.7500000  -0.2500000), wk =   0.0000000
        k(   15) = (  -0.5000000  -1.0000000   0.0000000), wk =   0.1875000
        k(   16) = (  -0.7500000  -0.7500000  -0.2500000), wk =   0.0000000
        k(   17) = (   0.2500000  -0.2500000  -0.2500000), wk =   0.0937500
        k(   18) = (   0.0000000   0.0000000  -0.5000000), wk =   0.0000000
        k(   19) = (   0.2500000  -0.2500000   0.2500000), wk =   0.0312500
        k(   20) = (   0.0000000   0.0000000   0.0000000), wk =   0.0000000
        k(   21) = (  -0.2500000  -0.2500000  -0.2500000), wk =   0.0937500
        k(   22) = (  -0.5000000   0.0000000  -0.5000000), wk =   0.0000000
        k(   23) = (  -0.5000000   0.5000000   0.5000000), wk =   0.0937500
        k(   24) = (  -0.7500000   0.7500000   0.2500000), wk =   0.0000000
        k(   25) = (   0.0000000   0.0000000   0.5000000), wk =   0.0937500
        k(   26) = (  -0.2500000   0.2500000   0.2500000), wk =   0.0000000
        k(   27) = (  -0.7500000   0.7500000   0.2500000), wk =   0.0937500
        k(   28) = (  -1.0000000   1.0000000   0.0000000), wk =   0.0000000
        k(   29) = (  -0.7500000   0.7500000  -0.2500000), wk =   0.0937500
        k(   30) = (  -1.0000000   1.0000000  -0.5000000), wk =   0.0000000
        k(   31) = (  -0.7500000   0.2500000   0.7500000), wk =   0.1875000
        k(   32) = (  -1.0000000   0.5000000   0.5000000), wk =   0.0000000
        k(   33) = (   0.7500000   0.2500000   0.7500000), wk =   0.0937500
        k(   34) = (   0.5000000   0.5000000   0.5000000), wk =   0.0000000
        k(   35) = (   0.7500000  -0.2500000  -0.7500000), wk =   0.1875000
        k(   36) = (   0.5000000   0.0000000  -1.0000000), wk =   0.0000000
        k(   37) = (  -0.5000000   0.5000000   0.0000000), wk =   0.0937500
        k(   38) = (  -0.7500000   0.7500000  -0.2500000), wk =   0.0000000
        k(   39) = (  -0.5000000   0.0000000   0.5000000), wk =   0.1875000
        k(   40) = (  -0.7500000   0.2500000   0.2500000), wk =   0.0000000

     Dense  grid:     4279 G-vectors     FFT dimensions: (  24,  24,  24)

     Estimated max dynamical RAM per process >       0.59 MB

     Estimated total dynamical RAM >       2.37 MB

     The potential is recalculated from file :
     ./tmp/_ph0/silicon.save/charge-density

     Starting wfcs are    8 atomic wfcs

     Band Structure Calculation
     Davidson diagonalization with overlap

     ethr =  1.25E-10,  avg # of iterations =  9.8

     total cpu time spent up to now is        0.5 secs

     End of band structure calculation

          k = 0.0000 0.0000 0.0000 (   531 PWs)   bands (ev):

    -5.8298   6.2602   6.2602   6.2602

          k =-0.2500 0.2500-0.2500 (   531 PWs)   bands (ev):

    -5.0163   2.2803   5.4898   5.4898

          k =-0.2500 0.2500-0.2500 (   531 PWs)   bands (ev):

    -5.0163   2.2803   5.4898   5.4898

          k =-0.5000 0.5000-0.5000 (   544 PWs)   bands (ev):

    -3.4435  -0.8222   5.0488   5.0488

          k = 0.5000-0.5000 0.5000 (   544 PWs)   bands (ev):

    -3.4435  -0.8222   5.0488   5.0488

          k = 0.2500-0.2500 0.2500 (   531 PWs)   bands (ev):

    -5.0163   2.2803   5.4898   5.4898

          k = 0.0000 0.5000 0.0000 (   528 PWs)   bands (ev):

    -4.7302   2.7329   4.3342   4.3342

          k =-0.2500 0.7500-0.2500 (   529 PWs)   bands (ev):

    -3.0601  -0.1827   2.6418   4.0173

          k = 0.7500-0.2500 0.7500 (   529 PWs)   bands (ev):

    -3.0601  -0.1827   2.6418   4.0173

          k = 0.5000 0.0000 0.5000 (   524 PWs)   bands (ev):

    -3.7482   0.7368   2.4091   4.9135

          k = 0.5000 0.0000 0.5000 (   524 PWs)   bands (ev):

    -3.7482   0.7368   2.4091   4.9135

          k = 0.2500 0.2500 0.2500 (   531 PWs)   bands (ev):

    -5.0163   2.2803   5.4898   5.4898

          k = 0.0000-1.0000 0.0000 (   524 PWs)   bands (ev):

    -1.6182  -1.6182   3.3581   3.3581

          k =-0.2500-0.7500-0.2500 (   529 PWs)   bands (ev):

    -3.0601  -0.1827   2.6418   4.0173

          k =-0.5000-1.0000 0.0000 (   516 PWs)   bands (ev):

    -1.4420  -1.4420   2.3021   2.3021

          k =-0.7500-0.7500-0.2500 (   529 PWs)   bands (ev):

    -3.0601  -0.1827   2.6418   4.0173

          k = 0.2500-0.2500-0.2500 (   531 PWs)   bands (ev):

    -5.0163   2.2803   5.4898   5.4898

          k = 0.0000 0.0000-0.5000 (   528 PWs)   bands (ev):

    -4.7302   2.7329   4.3342   4.3342

          k = 0.2500-0.2500 0.2500 (   531 PWs)   bands (ev):

    -5.0163   2.2803   5.4898   5.4898

          k = 0.0000 0.0000 0.0000 (   531 PWs)   bands (ev):

    -5.8298   6.2602   6.2602   6.2602

          k =-0.2500-0.2500-0.2500 (   531 PWs)   bands (ev):

    -5.0163   2.2803   5.4898   5.4898

          k =-0.5000 0.0000-0.5000 (   524 PWs)   bands (ev):

    -3.7482   0.7368   2.4091   4.9135

          k =-0.5000 0.5000 0.5000 (   544 PWs)   bands (ev):

    -3.4435  -0.8222   5.0488   5.0488

          k =-0.7500 0.7500 0.2500 (   529 PWs)   bands (ev):

    -3.0601  -0.1827   2.6418   4.0173

          k = 0.0000 0.0000 0.5000 (   528 PWs)   bands (ev):

    -4.7302   2.7329   4.3342   4.3342

          k =-0.2500 0.2500 0.2500 (   531 PWs)   bands (ev):

    -5.0163   2.2803   5.4898   5.4898

          k =-0.7500 0.7500 0.2500 (   529 PWs)   bands (ev):

    -3.0601  -0.1827   2.6418   4.0173

          k =-1.0000 1.0000 0.0000 (   524 PWs)   bands (ev):

    -1.6182  -1.6182   3.3581   3.3581

          k =-0.7500 0.7500-0.2500 (   529 PWs)   bands (ev):

    -3.0601  -0.1827   2.6418   4.0173

          k =-1.0000 1.0000-0.5000 (   528 PWs)   bands (ev):

    -4.7302   2.7329   4.3342   4.3342

          k =-0.7500 0.2500 0.7500 (   529 PWs)   bands (ev):

    -3.0601  -0.1827   2.6418   4.0173

          k =-1.0000 0.5000 0.5000 (   524 PWs)   bands (ev):

    -3.7482   0.7368   2.4091   4.9135

          k = 0.7500 0.2500 0.7500 (   529 PWs)   bands (ev):

    -3.0601  -0.1827   2.6418   4.0173

          k = 0.5000 0.5000 0.5000 (   544 PWs)   bands (ev):

    -3.4435  -0.8222   5.0488   5.0488

          k = 0.7500-0.2500-0.7500 (   529 PWs)   bands (ev):

    -3.0601  -0.1827   2.6418   4.0173

          k = 0.5000 0.0000-1.0000 (   516 PWs)   bands (ev):

    -1.4420  -1.4420   2.3021   2.3021

          k =-0.5000 0.5000 0.0000 (   524 PWs)   bands (ev):

    -3.7482   0.7368   2.4091   4.9135

          k =-0.7500 0.7500-0.2500 (   529 PWs)   bands (ev):

    -3.0601  -0.1827   2.6418   4.0173

          k =-0.5000 0.0000 0.5000 (   524 PWs)   bands (ev):

    -3.7482   0.7368   2.4091   4.9135

          k =-0.7500 0.2500 0.2500 (   529 PWs)   bands (ev):

    -3.0601  -0.1827   2.6418   4.0173

     highest occupied level (ev):     6.2602

     Writing output data file silicon.save/

     Ph                                                                         

     bravais-lattice index     =            2
     lattice parameter (alat)  =      10.2000  a.u.
     unit-cell volume          =     265.3020 (a.u.)^3
     number of atoms/cell      =            2
     number of atomic types    =            1
     kinetic-energy cut-off    =      24.0000  Ry
     charge density cut-off    =      96.0000  Ry
     convergence threshold     =      1.0E-16
     beta                      =       0.7000
     number of iterations used =            4
     Exchange-correlation      = PZ ( 1  1  0  0 0 0)


     celldm(1)=   10.20000  celldm(2)=    0.00000  celldm(3)=    0.00000
     celldm(4)=    0.00000  celldm(5)=    0.00000  celldm(6)=    0.00000

     crystal axes: (cart. coord. in units of alat)
               a(1) = ( -0.5000  0.0000  0.5000 )  
               a(2) = (  0.0000  0.5000  0.5000 )  
               a(3) = ( -0.5000  0.5000  0.0000 )  

     reciprocal axes: (cart. coord. in units 2 pi/alat)
               b(1) = ( -1.0000 -1.0000  1.0000 )  
               b(2) = (  1.0000  1.0000  1.0000 )  
               b(3) = ( -1.0000  1.0000 -1.0000 )  


     Atoms inside the unit cell: 

     Cartesian axes

     site n.  atom      mass           positions (alat units)
        1     Si  28.0860   tau(    1) = (    0.00000    0.00000    0.00000  )
        2     Si  28.0860   tau(    2) = (    0.25000    0.25000    0.25000  )

     Computing dynamical matrix for 
                    q = (  -0.2500000   0.2500000  -0.2500000 )

      6 Sym.Ops. (no q -> -q+G )


     G cutoff =  252.9949  (   1071 G-vectors)     FFT grid: ( 24, 24, 24)
     number of k points=    40

     PseudoPot. # 1 for Si read from file:
     ../Si.pz-rrkj.UPF
     MD5 check sum: 884b380b739b48e9cd334294cddc9a8d
     Pseudo is Norm-conserving, Zval =  4.0
     Generated using "atomic" code by A. Dal Corso (espresso distribution)
     Using radial grid of 1141 points,  2 beta functions with: 
                l(1) =   0
                l(2) =   1

     Mode symmetry, C_3v (3m)   point group:


     Atomic displacements:
     There are   4 irreducible representations

     Representation     1      1 modes -A_1  L_1  To be done

     Representation     2      1 modes -A_1  L_1  To be done

     Representation     3      2 modes -E    L_3  To be done

     Representation     4      2 modes -E    L_3  To be done



     Alpha used in Ewald sum =   1.0000
     PHONON       :      6.67s CPU      7.46s WALL



     Representation #  1 mode #   1

     Self-consistent Calculation

      iter #   1 total cpu time :     7.6 secs   av.it.:   5.9
      thresh= 1.000E-02 alpha_mix =  0.700 |ddv_scf|^2 =  1.456E-03

      iter #   2 total cpu time :     7.8 secs   av.it.:   7.7
      thresh= 3.815E-03 alpha_mix =  0.700 |ddv_scf|^2 =  2.086E-02

      iter #   3 total cpu time :     8.0 secs   av.it.:   6.5
      thresh= 1.000E-02 alpha_mix =  0.700 |ddv_scf|^2 =  1.050E-06

      iter #   4 total cpu time :     8.3 secs   av.it.:   8.0
      thresh= 1.025E-04 alpha_mix =  0.700 |ddv_scf|^2 =  9.190E-08

      iter #   5 total cpu time :     8.5 secs   av.it.:   7.7
      thresh= 3.031E-05 alpha_mix =  0.700 |ddv_scf|^2 =  4.344E-10

      iter #   6 total cpu time :     8.7 secs   av.it.:   7.8
      thresh= 2.084E-06 alpha_mix =  0.700 |ddv_scf|^2 =  1.093E-10

      iter #   7 total cpu time :     8.9 secs   av.it.:   7.2
      thresh= 1.045E-06 alpha_mix =  0.700 |ddv_scf|^2 =  1.416E-10

      iter #   8 total cpu time :     9.1 secs   av.it.:   6.8
      thresh= 1.190E-06 alpha_mix =  0.700 |ddv_scf|^2 =  3.612E-13

      iter #   9 total cpu time :     9.2 secs   av.it.:   7.4
      thresh= 6.010E-08 alpha_mix =  0.700 |ddv_scf|^2 =  5.746E-15

      iter #  10 total cpu time :     9.5 secs   av.it.:   8.0
      thresh= 7.580E-09 alpha_mix =  0.700 |ddv_scf|^2 =  6.874E-15

      iter #  11 total cpu time :     9.7 secs   av.it.:   7.2
      thresh= 8.291E-09 alpha_mix =  0.700 |ddv_scf|^2 =  7.826E-17

     End of self-consistent calculation

     Convergence has been achieved 


     Representation #  2 mode #   2

     Self-consistent Calculation

      iter #   1 total cpu time :     9.8 secs   av.it.:   5.9
      thresh= 1.000E-02 alpha_mix =  0.700 |ddv_scf|^2 =  1.455E-03

      iter #   2 total cpu time :    10.0 secs   av.it.:   7.7
      thresh= 3.815E-03 alpha_mix =  0.700 |ddv_scf|^2 =  2.086E-02

      iter #   3 total cpu time :    10.2 secs   av.it.:   6.5
      thresh= 1.000E-02 alpha_mix =  0.700 |ddv_scf|^2 =  1.047E-06

      iter #   4 total cpu time :    10.4 secs   av.it.:   8.0
      thresh= 1.023E-04 alpha_mix =  0.700 |ddv_scf|^2 =  9.222E-08

      iter #   5 total cpu time :    10.6 secs   av.it.:   7.7
      thresh= 3.037E-05 alpha_mix =  0.700 |ddv_scf|^2 =  5.210E-10

      iter #   6 total cpu time :    10.8 secs   av.it.:   7.8
      thresh= 2.283E-06 alpha_mix =  0.700 |ddv_scf|^2 =  5.991E-10

      iter #   7 total cpu time :    11.0 secs   av.it.:   6.6
      thresh= 2.448E-06 alpha_mix =  0.700 |ddv_scf|^2 =  4.247E-11

      iter #   8 total cpu time :    11.1 secs   av.it.:   7.5
      thresh= 6.517E-07 alpha_mix =  0.700 |ddv_scf|^2 =  4.071E-13

      iter #   9 total cpu time :    11.3 secs   av.it.:   7.4
      thresh= 6.381E-08 alpha_mix =  0.700 |ddv_scf|^2 =  5.504E-15

      iter #  10 total cpu time :    11.5 secs   av.it.:   7.9
      thresh= 7.419E-09 alpha_mix =  0.700 |ddv_scf|^2 =  6.472E-15

      iter #  11 total cpu time :    11.7 secs   av.it.:   7.3
      thresh= 8.045E-09 alpha_mix =  0.700 |ddv_scf|^2 =  1.161E-16

      iter #  12 total cpu time :    11.9 secs   av.it.:   7.8
      thresh= 1.077E-09 alpha_mix =  0.700 |ddv_scf|^2 =  4.690E-18

     End of self-consistent calculation

     Convergence has been achieved 


     Representation #  3 modes #   3  4

     Self-consistent Calculation

      iter #   1 total cpu time :    12.2 secs   av.it.:   5.2
      thresh= 1.000E-02 alpha_mix =  0.700 |ddv_scf|^2 =  3.067E-07

      iter #   2 total cpu time :    12.6 secs   av.it.:   9.4
      thresh= 5.538E-05 alpha_mix =  0.700 |ddv_scf|^2 =  1.836E-08

      iter #   3 total cpu time :    13.0 secs   av.it.:   9.2
      thresh= 1.355E-05 alpha_mix =  0.700 |ddv_scf|^2 =  1.000E-10

      iter #   4 total cpu time :    13.4 secs   av.it.:   9.1
      thresh= 1.000E-06 alpha_mix =  0.700 |ddv_scf|^2 =  6.097E-12

      iter #   5 total cpu time :    13.9 secs   av.it.:   9.0
      thresh= 2.469E-07 alpha_mix =  0.700 |ddv_scf|^2 =  1.089E-14

      iter #   6 total cpu time :    14.3 secs   av.it.:   9.4
      thresh= 1.044E-08 alpha_mix =  0.700 |ddv_scf|^2 =  1.826E-16

      iter #   7 total cpu time :    14.8 secs   av.it.:   9.7
      thresh= 1.351E-09 alpha_mix =  0.700 |ddv_scf|^2 =  1.025E-18

     End of self-consistent calculation

     Convergence has been achieved 


     Representation #  4 modes #   5  6

     Self-consistent Calculation

      iter #   1 total cpu time :    15.1 secs   av.it.:   5.3
      thresh= 1.000E-02 alpha_mix =  0.700 |ddv_scf|^2 =  3.064E-07

      iter #   2 total cpu time :    15.5 secs   av.it.:   9.5
      thresh= 5.536E-05 alpha_mix =  0.700 |ddv_scf|^2 =  1.828E-08

      iter #   3 total cpu time :    16.0 secs   av.it.:   9.3
      thresh= 1.352E-05 alpha_mix =  0.700 |ddv_scf|^2 =  1.003E-10

      iter #   4 total cpu time :    16.4 secs   av.it.:   9.2
      thresh= 1.001E-06 alpha_mix =  0.700 |ddv_scf|^2 =  6.091E-12

      iter #   5 total cpu time :    16.8 secs   av.it.:   9.2
      thresh= 2.468E-07 alpha_mix =  0.700 |ddv_scf|^2 =  1.094E-14

      iter #   6 total cpu time :    17.3 secs   av.it.:   9.6
      thresh= 1.046E-08 alpha_mix =  0.700 |ddv_scf|^2 =  1.838E-16

      iter #   7 total cpu time :    17.7 secs   av.it.:   9.7
      thresh= 1.356E-09 alpha_mix =  0.700 |ddv_scf|^2 =  1.005E-18

     End of self-consistent calculation

     Convergence has been achieved 

     Number of q in the star =    8
     List of q in the star:
          1  -0.250000000   0.250000000  -0.250000000
          2   0.250000000  -0.250000000  -0.250000000
          3   0.250000000  -0.250000000   0.250000000
          4   0.250000000   0.250000000   0.250000000
          5  -0.250000000  -0.250000000  -0.250000000
          6  -0.250000000  -0.250000000   0.250000000
          7  -0.250000000   0.250000000   0.250000000
          8   0.250000000   0.250000000  -0.250000000

     Diagonalizing the dynamical matrix

     q = (   -0.250000000   0.250000000  -0.250000000 ) 

 **************************************************************************
     freq (    1) =       2.780943 [THz] =      92.762259 [cm-1]
     freq (    2) =       2.780943 [THz] =      92.762259 [cm-1]
     freq (    3) =       6.848919 [THz] =     228.455349 [cm-1]
     freq (    4) =      14.655956 [THz] =     488.870085 [cm-1]
     freq (    5) =      14.865620 [THz] =     495.863715 [cm-1]
     freq (    6) =      14.865620 [THz] =     495.863715 [cm-1]
 **************************************************************************

     Mode symmetry, C_3v (3m)   point group:

     freq (  1 -  2) =         92.8  [cm-1]   --> E    L_3           
     freq (  3 -  3) =        228.5  [cm-1]   --> A_1  L_1           
     freq (  4 -  4) =        488.9  [cm-1]   --> A_1  L_1           
     freq (  5 -  6) =        495.9  [cm-1]   --> E    L_3           

     Calculation of q =    0.5000000  -0.5000000   0.5000000

     Parallelization info
     --------------------
     sticks:   dense  smooth     PW     G-vecs:    dense   smooth      PW
     Min          87      87     31                 1068     1068     241
     Max          88      88     32                 1071     1071     242
     Sum         349     349    127                 4279     4279     965


     Title: 
     Ph                                                                         


     bravais-lattice index     =            2
     lattice parameter (alat)  =      10.2000  a.u.
     unit-cell volume          =     265.3020 (a.u.)^3
     number of atoms/cell      =            2
     number of atomic types    =            1
     number of electrons       =         8.00
     number of Kohn-Sham states=            4
     kinetic-energy cutoff     =      24.0000  Ry
     charge density cutoff     =      96.0000  Ry
     Exchange-correlation      = PZ ( 1  1  0  0 0 0)

     celldm(1)=  10.200000  celldm(2)=   0.000000  celldm(3)=   0.000000
     celldm(4)=   0.000000  celldm(5)=   0.000000  celldm(6)=   0.000000

     crystal axes: (cart. coord. in units of alat)
               a(1) = (  -0.500000   0.000000   0.500000 )  
               a(2) = (   0.000000   0.500000   0.500000 )  
               a(3) = (  -0.500000   0.500000   0.000000 )  

     reciprocal axes: (cart. coord. in units 2 pi/alat)
               b(1) = ( -1.000000 -1.000000  1.000000 )  
               b(2) = (  1.000000  1.000000  1.000000 )  
               b(3) = ( -1.000000  1.000000 -1.000000 )  


     PseudoPot. # 1 for Si read from file:
     ../Si.pz-rrkj.UPF
     MD5 check sum: 884b380b739b48e9cd334294cddc9a8d
     Pseudo is Norm-conserving, Zval =  4.0
     Generated using "atomic" code by A. Dal Corso (espresso distribution)
     Using radial grid of 1141 points,  2 beta functions with: 
                l(1) =   0
                l(2) =   1

     atomic species   valence    mass     pseudopotential
        Si             4.00    28.08600     Si( 1.00)

     48 Sym. Ops., with inversion, found



   Cartesian axes

     site n.     atom                  positions (alat units)
         1           Si  tau(   1) = (   0.0000000   0.0000000   0.0000000  )
         2           Si  tau(   2) = (   0.2500000   0.2500000   0.2500000  )

     number of k points=    26
                       cart. coord. in units 2pi/alat
        k(    1) = (   0.0000000   0.0000000   0.0000000), wk =   0.0312500
        k(    2) = (   0.5000000  -0.5000000   0.5000000), wk =   0.0000000
        k(    3) = (  -0.2500000   0.2500000  -0.2500000), wk =   0.0625000
        k(    4) = (   0.2500000  -0.2500000   0.2500000), wk =   0.0000000
        k(    5) = (   0.5000000  -0.5000000   0.5000000), wk =   0.0312500
        k(    6) = (   1.0000000  -1.0000000   1.0000000), wk =   0.0000000
        k(    7) = (   0.0000000   0.5000000   0.0000000), wk =   0.1875000
        k(    8) = (   0.5000000   0.0000000   0.5000000), wk =   0.0000000
        k(    9) = (   0.7500000  -0.2500000   0.7500000), wk =   0.1875000
        k(   10) = (   1.2500000  -0.7500000   1.2500000), wk =   0.0000000
        k(   11) = (   0.5000000   0.0000000   0.5000000), wk =   0.1875000
        k(   12) = (   1.0000000  -0.5000000   1.0000000), wk =   0.0000000
        k(   13) = (   0.0000000  -1.0000000   0.0000000), wk =   0.0937500
        k(   14) = (   0.5000000  -1.5000000   0.5000000), wk =   0.0000000
        k(   15) = (  -0.5000000  -1.0000000   0.0000000), wk =   0.1875000
        k(   16) = (   0.0000000  -1.5000000   0.5000000), wk =   0.0000000
        k(   17) = (  -0.2500000  -0.2500000  -0.2500000), wk =   0.1875000
        k(   18) = (   0.2500000  -0.7500000   0.2500000), wk =   0.0000000
        k(   19) = (   0.5000000   0.5000000   0.5000000), wk =   0.0937500
        k(   20) = (   1.0000000   0.0000000   1.0000000), wk =   0.0000000
        k(   21) = (   0.7500000   0.2500000   0.7500000), wk =   0.1875000
        k(   22) = (   1.2500000  -0.2500000   1.2500000), wk =   0.0000000
        k(   23) = (  -0.7500000   0.2500000   0.7500000), wk =   0.3750000
        k(   24) = (  -0.2500000  -0.2500000   1.2500000), wk =   0.0000000
        k(   25) = (  -0.5000000   0.0000000   0.5000000), wk =   0.1875000
        k(   26) = (   0.0000000  -0.5000000   1.0000000), wk =   0.0000000

     Dense  grid:     4279 G-vectors     FFT dimensions: (  24,  24,  24)

     Estimated max dynamical RAM per process >       0.59 MB

     Estimated total dynamical RAM >       2.38 MB

     The potential is recalculated from file :
     ./tmp/_ph0/silicon.save/charge-density

     Starting wfcs are    8 atomic wfcs

     Band Structure Calculation
     Davidson diagonalization with overlap

     ethr =  1.25E-10,  avg # of iterations =  9.5

     total cpu time spent up to now is        0.9 secs

     End of band structure calculation

          k = 0.0000 0.0000 0.0000 (   531 PWs)   bands (ev):

    -5.8298   6.2602   6.2602   6.2602

          k = 0.5000-0.5000 0.5000 (   544 PWs)   bands (ev):

    -3.4435  -0.8222   5.0488   5.0488

          k =-0.2500 0.2500-0.2500 (   531 PWs)   bands (ev):

    -5.0163   2.2803   5.4898   5.4898

          k = 0.2500-0.2500 0.2500 (   531 PWs)   bands (ev):

    -5.0163   2.2803   5.4898   5.4898

          k = 0.5000-0.5000 0.5000 (   544 PWs)   bands (ev):

    -3.4435  -0.8222   5.0488   5.0488

          k = 1.0000-1.0000 1.0000 (   531 PWs)   bands (ev):

    -5.8298   6.2602   6.2602   6.2602

          k = 0.0000 0.5000 0.0000 (   528 PWs)   bands (ev):

    -4.7302   2.7329   4.3342   4.3342

          k = 0.5000 0.0000 0.5000 (   524 PWs)   bands (ev):

    -3.7482   0.7368   2.4091   4.9135

          k = 0.7500-0.2500 0.7500 (   529 PWs)   bands (ev):

    -3.0601  -0.1827   2.6418   4.0173

          k = 1.2500-0.7500 1.2500 (   531 PWs)   bands (ev):

    -5.0163   2.2803   5.4898   5.4898

          k = 0.5000 0.0000 0.5000 (   524 PWs)   bands (ev):

    -3.7482   0.7368   2.4091   4.9135

          k = 1.0000-0.5000 1.0000 (   528 PWs)   bands (ev):

    -4.7302   2.7329   4.3342   4.3342

          k = 0.0000-1.0000 0.0000 (   524 PWs)   bands (ev):

    -1.6182  -1.6182   3.3581   3.3581

          k = 0.5000-1.5000 0.5000 (   544 PWs)   bands (ev):

    -3.4435  -0.8222   5.0488   5.0488

          k =-0.5000-1.0000 0.0000 (   516 PWs)   bands (ev):

    -1.4420  -1.4420   2.3021   2.3021

          k = 0.0000-1.5000 0.5000 (   524 PWs)   bands (ev):

    -3.7482   0.7368   2.4091   4.9135

          k =-0.2500-0.2500-0.2500 (   531 PWs)   bands (ev):

    -5.0163   2.2803   5.4898   5.4898

          k = 0.2500-0.7500 0.2500 (   529 PWs)   bands (ev):

    -3.0601  -0.1827   2.6418   4.0173

          k = 0.5000 0.5000 0.5000 (   544 PWs)   bands (ev):

    -3.4435  -0.8222   5.0488   5.0488

          k = 1.0000 0.0000 1.0000 (   524 PWs)   bands (ev):

    -1.6182  -1.6182   3.3581   3.3581

          k = 0.7500 0.2500 0.7500 (   529 PWs)   bands (ev):

    -3.0601  -0.1827   2.6418   4.0173

          k = 1.2500-0.2500 1.2500 (   529 PWs)   bands (ev):

    -3.0601  -0.1827   2.6418   4.0173

          k =-0.7500 0.2500 0.7500 (   529 PWs)   bands (ev):

    -3.0601  -0.1827   2.6418   4.0173

          k =-0.2500-0.2500 1.2500 (   529 PWs)   bands (ev):

    -3.0601  -0.1827   2.6418   4.0173

          k =-0.5000 0.0000 0.5000 (   524 PWs)   bands (ev):

    -3.7482   0.7368   2.4091   4.9135

          k = 0.0000-0.5000 1.0000 (   516 PWs)   bands (ev):

    -1.4420  -1.4420   2.3021   2.3021

     highest occupied level (ev):     6.2602

     Writing output data file silicon.save/

     Ph                                                                         

     bravais-lattice index     =            2
     lattice parameter (alat)  =      10.2000  a.u.
     unit-cell volume          =     265.3020 (a.u.)^3
     number of atoms/cell      =            2
     number of atomic types    =            1
     kinetic-energy cut-off    =      24.0000  Ry
     charge density cut-off    =      96.0000  Ry
     convergence threshold     =      1.0E-16
     beta                      =       0.7000
     number of iterations used =            4
     Exchange-correlation      = PZ ( 1  1  0  0 0 0)


     celldm(1)=   10.20000  celldm(2)=    0.00000  celldm(3)=    0.00000
     celldm(4)=    0.00000  celldm(5)=    0.00000  celldm(6)=    0.00000

     crystal axes: (cart. coord. in units of alat)
               a(1) = ( -0.5000  0.0000  0.5000 )  
               a(2) = (  0.0000  0.5000  0.5000 )  
               a(3) = ( -0.5000  0.5000  0.0000 )  

     reciprocal axes: (cart. coord. in units 2 pi/alat)
               b(1) = ( -1.0000 -1.0000  1.0000 )  
               b(2) = (  1.0000  1.0000  1.0000 )  
               b(3) = ( -1.0000  1.0000 -1.0000 )  


     Atoms inside the unit cell: 

     Cartesian axes

     site n.  atom      mass           positions (alat units)
        1     Si  28.0860   tau(    1) = (    0.00000    0.00000    0.00000  )
        2     Si  28.0860   tau(    2) = (    0.25000    0.25000    0.25000  )

     Computing dynamical matrix for 
                    q = (   0.5000000  -0.5000000   0.5000000 )

     13 Sym.Ops. (with q -> -q+G )


     G cutoff =  252.9949  (   1071 G-vectors)     FFT grid: ( 24, 24, 24)
     number of k points=    26

     PseudoPot. # 1 for Si read from file:
     ../Si.pz-rrkj.UPF
     MD5 check sum: 884b380b739b48e9cd334294cddc9a8d
     Pseudo is Norm-conserving, Zval =  4.0
     Generated using "atomic" code by A. Dal Corso (espresso distribution)
     Using radial grid of 1141 points,  2 beta functions with: 
                l(1) =   0
                l(2) =   1


     Atomic displacements:
     There are   4 irreducible representations

     Representation     1      1 modes -  To be done

     Representation     2      1 modes -  To be done

     Representation     3      2 modes -  To be done

     Representation     4      2 modes -  To be done



     Alpha used in Ewald sum =   1.0000
     PHONON       :     16.06s CPU     18.11s WALL



     Representation #  1 mode #   1

     Self-consistent Calculation

      iter #   1 total cpu time :    18.2 secs   av.it.:   4.8
      thresh= 1.000E-02 alpha_mix =  0.700 |ddv_scf|^2 =  1.332E-05

      iter #   2 total cpu time :    18.4 secs   av.it.:   7.5
      thresh= 3.649E-04 alpha_mix =  0.700 |ddv_scf|^2 =  1.062E-05

      iter #   3 total cpu time :    18.5 secs   av.it.:   7.1
      thresh= 3.260E-04 alpha_mix =  0.700 |ddv_scf|^2 =  1.416E-09

      iter #   4 total cpu time :    18.6 secs   av.it.:   7.3
      thresh= 3.763E-06 alpha_mix =  0.700 |ddv_scf|^2 =  2.286E-11

      iter #   5 total cpu time :    18.7 secs   av.it.:   7.2
      thresh= 4.781E-07 alpha_mix =  0.700 |ddv_scf|^2 =  1.664E-13

      iter #   6 total cpu time :    18.9 secs   av.it.:   7.2
      thresh= 4.080E-08 alpha_mix =  0.700 |ddv_scf|^2 =  2.167E-15

      iter #   7 total cpu time :    19.0 secs   av.it.:   7.5
      thresh= 4.655E-09 alpha_mix =  0.700 |ddv_scf|^2 =  6.311E-18

     End of self-consistent calculation

     Convergence has been achieved 


     Representation #  2 mode #   2

     Self-consistent Calculation

      iter #   1 total cpu time :    19.1 secs   av.it.:   5.9
      thresh= 1.000E-02 alpha_mix =  0.700 |ddv_scf|^2 =  2.408E-04

      iter #   2 total cpu time :    19.3 secs   av.it.:   7.9
      thresh= 1.552E-03 alpha_mix =  0.700 |ddv_scf|^2 =  8.227E-04

      iter #   3 total cpu time :    19.4 secs   av.it.:   7.2
      thresh= 2.868E-03 alpha_mix =  0.700 |ddv_scf|^2 =  2.026E-08

      iter #   4 total cpu time :    19.6 secs   av.it.:   8.3
      thresh= 1.423E-05 alpha_mix =  0.700 |ddv_scf|^2 =  6.471E-10

      iter #   5 total cpu time :    19.7 secs   av.it.:   8.2
      thresh= 2.544E-06 alpha_mix =  0.700 |ddv_scf|^2 =  5.054E-11

      iter #   6 total cpu time :    19.9 secs   av.it.:   7.6
      thresh= 7.109E-07 alpha_mix =  0.700 |ddv_scf|^2 =  2.462E-14

      iter #   7 total cpu time :    20.0 secs   av.it.:   7.7
      thresh= 1.569E-08 alpha_mix =  0.700 |ddv_scf|^2 =  3.397E-15

      iter #   8 total cpu time :    20.2 secs   av.it.:   7.7
      thresh= 5.828E-09 alpha_mix =  0.700 |ddv_scf|^2 =  3.737E-16

      iter #   9 total cpu time :    20.3 secs   av.it.:   7.6
      thresh= 1.933E-09 alpha_mix =  0.700 |ddv_scf|^2 =  2.175E-19

     End of self-consistent calculation

     Convergence has been achieved 


     Representation #  3 modes #   3  4

     Self-consistent Calculation

      iter #   1 total cpu time :    20.5 secs   av.it.:   5.0
      thresh= 1.000E-02 alpha_mix =  0.700 |ddv_scf|^2 =  6.954E-07

      iter #   2 total cpu time :    20.8 secs   av.it.:   8.9
      thresh= 8.339E-05 alpha_mix =  0.700 |ddv_scf|^2 =  6.374E-08

      iter #   3 total cpu time :    21.1 secs   av.it.:   8.7
      thresh= 2.525E-05 alpha_mix =  0.700 |ddv_scf|^2 =  9.071E-11

      iter #   4 total cpu time :    21.4 secs   av.it.:   8.3
      thresh= 9.524E-07 alpha_mix =  0.700 |ddv_scf|^2 =  2.811E-13

      iter #   5 total cpu time :    21.7 secs   av.it.:   8.7
      thresh= 5.302E-08 alpha_mix =  0.700 |ddv_scf|^2 =  1.085E-15

      iter #   6 total cpu time :    22.0 secs   av.it.:   8.8
      thresh= 3.294E-09 alpha_mix =  0.700 |ddv_scf|^2 =  2.205E-17

     End of self-consistent calculation

     Convergence has been achieved 


     Representation #  4 modes #   5  6

     Self-consistent Calculation

      iter #   1 total cpu time :    22.1 secs   av.it.:   4.9
      thresh= 1.000E-02 alpha_mix =  0.700 |ddv_scf|^2 =  8.144E-08

      iter #   2 total cpu time :    22.4 secs   av.it.:   9.2
      thresh= 2.854E-05 alpha_mix =  0.700 |ddv_scf|^2 =  1.893E-09

      iter #   3 total cpu time :    22.7 secs   av.it.:   8.9
      thresh= 4.351E-06 alpha_mix =  0.700 |ddv_scf|^2 =  6.401E-11

      iter #   4 total cpu time :    23.0 secs   av.it.:   8.9
      thresh= 8.001E-07 alpha_mix =  0.700 |ddv_scf|^2 =  9.238E-14

      iter #   5 total cpu time :    23.3 secs   av.it.:   9.2
      thresh= 3.039E-08 alpha_mix =  0.700 |ddv_scf|^2 =  1.227E-15

      iter #   6 total cpu time :    23.6 secs   av.it.:   9.4
      thresh= 3.502E-09 alpha_mix =  0.700 |ddv_scf|^2 =  5.518E-18

     End of self-consistent calculation

     Convergence has been achieved 

     Number of q in the star =    4
     List of q in the star:
          1   0.500000000  -0.500000000   0.500000000
          2   0.500000000   0.500000000   0.500000000
          3  -0.500000000   0.500000000   0.500000000
          4   0.500000000   0.500000000  -0.500000000

     Diagonalizing the dynamical matrix

     q = (    0.500000000  -0.500000000   0.500000000 ) 

 **************************************************************************
     freq (    1) =       3.063536 [THz] =     102.188552 [cm-1]
     freq (    2) =       3.063536 [THz] =     102.188552 [cm-1]
     freq (    3) =      11.441568 [THz] =     381.649638 [cm-1]
     freq (    4) =      12.004148 [THz] =     400.415268 [cm-1]
     freq (    5) =      14.540205 [THz] =     485.009023 [cm-1]
     freq (    6) =      14.540205 [THz] =     485.009023 [cm-1]
 **************************************************************************

     Calculation of q =    0.0000000   0.5000000   0.0000000

     Parallelization info
     --------------------
     sticks:   dense  smooth     PW     G-vecs:    dense   smooth      PW
     Min          87      87     30                 1068     1068     222
     Max          88      88     31                 1071     1071     225
     Sum         349     349    121                 4279     4279     893


     Title: 
     Ph                                                                         


     bravais-lattice index     =            2
     lattice parameter (alat)  =      10.2000  a.u.
     unit-cell volume          =     265.3020 (a.u.)^3
     number of atoms/cell      =            2
     number of atomic types    =            1
     number of electrons       =         8.00
     number of Kohn-Sham states=            4
     kinetic-energy cutoff     =      24.0000  Ry
     charge density cutoff     =      96.0000  Ry
     Exchange-correlation      = PZ ( 1  1  0  0 0 0)

     celldm(1)=  10.200000  celldm(2)=   0.000000  celldm(3)=   0.000000
     celldm(4)=   0.000000  celldm(5)=   0.000000  celldm(6)=   0.000000

     crystal axes: (cart. coord. in units of alat)
               a(1) = (  -0.500000   0.000000   0.500000 )  
               a(2) = (   0.000000   0.500000   0.500000 )  
               a(3) = (  -0.500000   0.500000   0.000000 )  

     reciprocal axes: (cart. coord. in units 2 pi/alat)
               b(1) = ( -1.000000 -1.000000  1.000000 )  
               b(2) = (  1.000000  1.000000  1.000000 )  
               b(3) = ( -1.000000  1.000000 -1.000000 )  


     PseudoPot. # 1 for Si read from file:
     ../Si.pz-rrkj.UPF
     MD5 check sum: 884b380b739b48e9cd334294cddc9a8d
     Pseudo is Norm-conserving, Zval =  4.0
     Generated using "atomic" code by A. Dal Corso (espresso distribution)
     Using radial grid of 1141 points,  2 beta functions with: 
                l(1) =   0
                l(2) =   1

     atomic species   valence    mass     pseudopotential
        Si             4.00    28.08600     Si( 1.00)

     48 Sym. Ops., with inversion, found



   Cartesian axes

     site n.     atom                  positions (alat units)
         1           Si  tau(   1) = (   0.0000000   0.0000000   0.0000000  )
         2           Si  tau(   2) = (   0.2500000   0.2500000   0.2500000  )

     number of k points=    36
                       cart. coord. in units 2pi/alat
        k(    1) = (   0.0000000   0.0000000   0.0000000), wk =   0.0312500
        k(    2) = (   0.0000000   0.5000000   0.0000000), wk =   0.0000000
        k(    3) = (  -0.2500000   0.2500000  -0.2500000), wk =   0.1250000
        k(    4) = (  -0.2500000   0.7500000  -0.2500000), wk =   0.0000000
        k(    5) = (   0.5000000  -0.5000000   0.5000000), wk =   0.1250000
        k(    6) = (   0.5000000   0.0000000   0.5000000), wk =   0.0000000
        k(    7) = (   0.0000000   0.5000000   0.0000000), wk =   0.0312500
        k(    8) = (   0.0000000   1.0000000   0.0000000), wk =   0.0000000
        k(    9) = (   0.7500000  -0.2500000   0.7500000), wk =   0.1250000
        k(   10) = (   0.7500000   0.2500000   0.7500000), wk =   0.0000000
        k(   11) = (   0.5000000   0.0000000   0.5000000), wk =   0.1250000
        k(   12) = (   0.5000000   0.5000000   0.5000000), wk =   0.0000000
        k(   13) = (   0.0000000  -1.0000000   0.0000000), wk =   0.0312500
        k(   14) = (   0.0000000  -0.5000000   0.0000000), wk =   0.0000000
        k(   15) = (  -0.5000000  -1.0000000   0.0000000), wk =   0.1250000
        k(   16) = (  -0.5000000  -0.5000000   0.0000000), wk =   0.0000000
        k(   17) = (   0.2500000  -0.2500000   0.2500000), wk =   0.1250000
        k(   18) = (   0.2500000   0.2500000   0.2500000), wk =   0.0000000
        k(   19) = (   0.0000000  -0.5000000   0.0000000), wk =   0.0312500
        k(   20) = (   0.0000000   0.0000000   0.0000000), wk =   0.0000000
        k(   21) = (   0.5000000   0.0000000   0.0000000), wk =   0.1250000
        k(   22) = (   0.5000000   0.5000000   0.0000000), wk =   0.0000000
        k(   23) = (  -0.7500000   0.2500000  -0.7500000), wk =   0.1250000
        k(   24) = (  -0.7500000   0.7500000  -0.7500000), wk =   0.0000000
        k(   25) = (  -0.2500000   0.7500000  -0.7500000), wk =   0.2500000
        k(   26) = (  -0.2500000   1.2500000  -0.7500000), wk =   0.0000000
        k(   27) = (  -0.2500000  -0.7500000  -0.7500000), wk =   0.2500000
        k(   28) = (  -0.2500000  -0.2500000  -0.7500000), wk =   0.0000000
        k(   29) = (   0.0000000   0.5000000  -0.5000000), wk =   0.1250000
        k(   30) = (   0.0000000   1.0000000  -0.5000000), wk =   0.0000000
        k(   31) = (   0.0000000  -0.5000000  -0.5000000), wk =   0.1250000
        k(   32) = (   0.0000000   0.0000000  -0.5000000), wk =   0.0000000
        k(   33) = (  -1.0000000   0.0000000   0.0000000), wk =   0.0625000
        k(   34) = (  -1.0000000   0.5000000   0.0000000), wk =   0.0000000
        k(   35) = (  -1.0000000  -0.5000000   0.0000000), wk =   0.0625000
        k(   36) = (  -1.0000000   0.0000000   0.0000000), wk =   0.0000000

     Dense  grid:     4279 G-vectors     FFT dimensions: (  24,  24,  24)

     Estimated max dynamical RAM per process >       0.59 MB

     Estimated total dynamical RAM >       2.37 MB

     The potential is recalculated from file :
     ./tmp/_ph0/silicon.save/charge-density

     Starting wfcs are    8 atomic wfcs

     Band Structure Calculation
     Davidson diagonalization with overlap

     ethr =  1.25E-10,  avg # of iterations =  9.7

     total cpu time spent up to now is        1.3 secs

     End of band structure calculation

          k = 0.0000 0.0000 0.0000 (   531 PWs)   bands (ev):

    -5.8298   6.2602   6.2602   6.2602

          k = 0.0000 0.5000 0.0000 (   528 PWs)   bands (ev):

    -4.7302   2.7329   4.3342   4.3342

          k =-0.2500 0.2500-0.2500 (   531 PWs)   bands (ev):

    -5.0163   2.2803   5.4898   5.4898

          k =-0.2500 0.7500-0.2500 (   529 PWs)   bands (ev):

    -3.0601  -0.1827   2.6418   4.0173

          k = 0.5000-0.5000 0.5000 (   544 PWs)   bands (ev):

    -3.4435  -0.8222   5.0488   5.0488

          k = 0.5000 0.0000 0.5000 (   524 PWs)   bands (ev):

    -3.7482   0.7368   2.4091   4.9135

          k = 0.0000 0.5000 0.0000 (   528 PWs)   bands (ev):

    -4.7302   2.7329   4.3342   4.3342

          k = 0.0000 1.0000 0.0000 (   524 PWs)   bands (ev):

    -1.6182  -1.6182   3.3581   3.3581

          k = 0.7500-0.2500 0.7500 (   529 PWs)   bands (ev):

    -3.0601  -0.1827   2.6418   4.0173

          k = 0.7500 0.2500 0.7500 (   529 PWs)   bands (ev):

    -3.0601  -0.1827   2.6418   4.0173

          k = 0.5000 0.0000 0.5000 (   524 PWs)   bands (ev):

    -3.7482   0.7368   2.4091   4.9135

          k = 0.5000 0.5000 0.5000 (   544 PWs)   bands (ev):

    -3.4435  -0.8222   5.0488   5.0488

          k = 0.0000-1.0000 0.0000 (   524 PWs)   bands (ev):

    -1.6182  -1.6182   3.3581   3.3581

          k = 0.0000-0.5000 0.0000 (   528 PWs)   bands (ev):

    -4.7302   2.7329   4.3342   4.3342

          k =-0.5000-1.0000 0.0000 (   516 PWs)   bands (ev):

    -1.4420  -1.4420   2.3021   2.3021

          k =-0.5000-0.5000 0.0000 (   524 PWs)   bands (ev):

    -3.7482   0.7368   2.4091   4.9135

          k = 0.2500-0.2500 0.2500 (   531 PWs)   bands (ev):

    -5.0163   2.2803   5.4898   5.4898

          k = 0.2500 0.2500 0.2500 (   531 PWs)   bands (ev):

    -5.0163   2.2803   5.4898   5.4898

          k = 0.0000-0.5000 0.0000 (   528 PWs)   bands (ev):

    -4.7302   2.7329   4.3342   4.3342

          k = 0.0000 0.0000 0.0000 (   531 PWs)   bands (ev):

    -5.8298   6.2602   6.2602   6.2602

          k = 0.5000 0.0000 0.0000 (   528 PWs)   bands (ev):

    -4.7302   2.7329   4.3342   4.3342

          k = 0.5000 0.5000 0.0000 (   524 PWs)   bands (ev):

    -3.7482   0.7368   2.4091   4.9135

          k =-0.7500 0.2500-0.7500 (   529 PWs)   bands (ev):

    -3.0601  -0.1827   2.6418   4.0173

          k =-0.7500 0.7500-0.7500 (   531 PWs)   bands (ev):

    -5.0163   2.2803   5.4898   5.4898

          k =-0.2500 0.7500-0.7500 (   529 PWs)   bands (ev):

    -3.0601  -0.1827   2.6418   4.0173

          k =-0.2500 1.2500-0.7500 (   529 PWs)   bands (ev):

    -3.0601  -0.1827   2.6418   4.0173

          k =-0.2500-0.7500-0.7500 (   529 PWs)   bands (ev):

    -3.0601  -0.1827   2.6418   4.0173

          k =-0.2500-0.2500-0.7500 (   529 PWs)   bands (ev):

    -3.0601  -0.1827   2.6418   4.0173

          k = 0.0000 0.5000-0.5000 (   524 PWs)   bands (ev):

    -3.7482   0.7368   2.4091   4.9135

          k = 0.0000 1.0000-0.5000 (   516 PWs)   bands (ev):

    -1.4420  -1.4420   2.3021   2.3021

          k = 0.0000-0.5000-0.5000 (   524 PWs)   bands (ev):

    -3.7482   0.7368   2.4091   4.9135

          k = 0.0000 0.0000-0.5000 (   528 PWs)   bands (ev):

    -4.7302   2.7329   4.3342   4.3342

          k =-1.0000 0.0000 0.0000 (   524 PWs)   bands (ev):

    -1.6182  -1.6182   3.3581   3.3581

          k =-1.0000 0.5000 0.0000 (   516 PWs)   bands (ev):

    -1.4420  -1.4420   2.3021   2.3021

          k =-1.0000-0.5000 0.0000 (   516 PWs)   bands (ev):

    -1.4420  -1.4420   2.3021   2.3021

          k =-1.0000 0.0000 0.0000 (   524 PWs)   bands (ev):

    -1.6182  -1.6182   3.3581   3.3581

     highest occupied level (ev):     6.2602

     Writing output data file silicon.save/

     Ph                                                                         

     bravais-lattice index     =            2
     lattice parameter (alat)  =      10.2000  a.u.
     unit-cell volume          =     265.3020 (a.u.)^3
     number of atoms/cell      =            2
     number of atomic types    =            1
     kinetic-energy cut-off    =      24.0000  Ry
     charge density cut-off    =      96.0000  Ry
     convergence threshold     =      1.0E-16
     beta                      =       0.7000
     number of iterations used =            4
     Exchange-correlation      = PZ ( 1  1  0  0 0 0)


     celldm(1)=   10.20000  celldm(2)=    0.00000  celldm(3)=    0.00000
     celldm(4)=    0.00000  celldm(5)=    0.00000  celldm(6)=    0.00000

     crystal axes: (cart. coord. in units of alat)
               a(1) = ( -0.5000  0.0000  0.5000 )  
               a(2) = (  0.0000  0.5000  0.5000 )  
               a(3) = ( -0.5000  0.5000  0.0000 )  

     reciprocal axes: (cart. coord. in units 2 pi/alat)
               b(1) = ( -1.0000 -1.0000  1.0000 )  
               b(2) = (  1.0000  1.0000  1.0000 )  
               b(3) = ( -1.0000  1.0000 -1.0000 )  


     Atoms inside the unit cell: 

     Cartesian axes

     site n.  atom      mass           positions (alat units)
        1     Si  28.0860   tau(    1) = (    0.00000    0.00000    0.00000  )
        2     Si  28.0860   tau(    2) = (    0.25000    0.25000    0.25000  )

     Computing dynamical matrix for 
                    q = (   0.0000000   0.5000000   0.0000000 )

      8 Sym.Ops. (no q -> -q+G )


     G cutoff =  252.9949  (   1071 G-vectors)     FFT grid: ( 24, 24, 24)
     number of k points=    36

     PseudoPot. # 1 for Si read from file:
     ../Si.pz-rrkj.UPF
     MD5 check sum: 884b380b739b48e9cd334294cddc9a8d
     Pseudo is Norm-conserving, Zval =  4.0
     Generated using "atomic" code by A. Dal Corso (espresso distribution)
     Using radial grid of 1141 points,  2 beta functions with: 
                l(1) =   0
                l(2) =   1

     Mode symmetry, C_4v (4mm)  point group:


     Atomic displacements:
     There are   4 irreducible representations

     Representation     1      1 modes -A_1  G_1 D_1  To be done

     Representation     2      1 modes -B_2  G_4 D_2'  To be done

     Representation     3      2 modes -E    G_5 D_5  To be done

     Representation     4      2 modes -E    G_5 D_5  To be done



     Alpha used in Ewald sum =   1.0000
     PHONON       :     21.37s CPU     24.13s WALL



     Representation #  1 mode #   1

     Self-consistent Calculation

      iter #   1 total cpu time :    24.3 secs   av.it.:   5.7
      thresh= 1.000E-02 alpha_mix =  0.700 |ddv_scf|^2 =  1.708E-03

      iter #   2 total cpu time :    24.5 secs   av.it.:   7.5
      thresh= 4.133E-03 alpha_mix =  0.700 |ddv_scf|^2 =  2.066E-02

      iter #   3 total cpu time :    24.6 secs   av.it.:   6.4
      thresh= 1.000E-02 alpha_mix =  0.700 |ddv_scf|^2 =  1.793E-08

      iter #   4 total cpu time :    24.8 secs   av.it.:   8.4
      thresh= 1.339E-05 alpha_mix =  0.700 |ddv_scf|^2 =  1.168E-09

      iter #   5 total cpu time :    25.0 secs   av.it.:   8.1
      thresh= 3.417E-06 alpha_mix =  0.700 |ddv_scf|^2 =  2.860E-11

      iter #   6 total cpu time :    25.2 secs   av.it.:   7.3
      thresh= 5.348E-07 alpha_mix =  0.700 |ddv_scf|^2 =  1.128E-12

      iter #   7 total cpu time :    25.3 secs   av.it.:   6.3
      thresh= 1.062E-07 alpha_mix =  0.700 |ddv_scf|^2 =  3.209E-15

      iter #   8 total cpu time :    25.5 secs   av.it.:   6.9
      thresh= 5.665E-09 alpha_mix =  0.700 |ddv_scf|^2 =  6.405E-18

     End of self-consistent calculation

     Convergence has been achieved 


     Representation #  2 mode #   2

     Self-consistent Calculation

      iter #   1 total cpu time :    25.6 secs   av.it.:   5.2
      thresh= 1.000E-02 alpha_mix =  0.700 |ddv_scf|^2 =  3.228E-06

      iter #   2 total cpu time :    25.8 secs   av.it.:   8.3
      thresh= 1.797E-04 alpha_mix =  0.700 |ddv_scf|^2 =  7.167E-07

      iter #   3 total cpu time :    25.9 secs   av.it.:   8.1
      thresh= 8.466E-05 alpha_mix =  0.700 |ddv_scf|^2 =  3.264E-09

      iter #   4 total cpu time :    26.1 secs   av.it.:   8.2
      thresh= 5.714E-06 alpha_mix =  0.700 |ddv_scf|^2 =  8.516E-11

      iter #   5 total cpu time :    26.3 secs   av.it.:   7.7
      thresh= 9.228E-07 alpha_mix =  0.700 |ddv_scf|^2 =  1.340E-12

      iter #   6 total cpu time :    26.5 secs   av.it.:   7.7
      thresh= 1.158E-07 alpha_mix =  0.700 |ddv_scf|^2 =  7.094E-16

      iter #   7 total cpu time :    26.7 secs   av.it.:   8.4
      thresh= 2.664E-09 alpha_mix =  0.700 |ddv_scf|^2 =  2.305E-17

     End of self-consistent calculation

     Convergence has been achieved 


     Representation #  3 modes #   3  4

     Self-consistent Calculation

      iter #   1 total cpu time :    27.0 secs   av.it.:   5.5
      thresh= 1.000E-02 alpha_mix =  0.700 |ddv_scf|^2 =  7.648E-07

      iter #   2 total cpu time :    27.4 secs   av.it.:   9.2
      thresh= 8.745E-05 alpha_mix =  0.700 |ddv_scf|^2 =  1.300E-07

      iter #   3 total cpu time :    27.7 secs   av.it.:   8.9
      thresh= 3.606E-05 alpha_mix =  0.700 |ddv_scf|^2 =  1.222E-10

      iter #   4 total cpu time :    28.1 secs   av.it.:   8.8
      thresh= 1.105E-06 alpha_mix =  0.700 |ddv_scf|^2 =  5.966E-12

      iter #   5 total cpu time :    28.5 secs   av.it.:   8.6
      thresh= 2.442E-07 alpha_mix =  0.700 |ddv_scf|^2 =  5.908E-15

      iter #   6 total cpu time :    28.9 secs   av.it.:   9.6
      thresh= 7.686E-09 alpha_mix =  0.700 |ddv_scf|^2 =  2.110E-17

     End of self-consistent calculation

     Convergence has been achieved 


     Representation #  4 modes #   5  6

     Self-consistent Calculation

      iter #   1 total cpu time :    29.2 secs   av.it.:   5.3
      thresh= 1.000E-02 alpha_mix =  0.700 |ddv_scf|^2 =  5.047E-07

      iter #   2 total cpu time :    29.5 secs   av.it.:   9.2
      thresh= 7.104E-05 alpha_mix =  0.700 |ddv_scf|^2 =  8.354E-08

      iter #   3 total cpu time :    29.9 secs   av.it.:   8.9
      thresh= 2.890E-05 alpha_mix =  0.700 |ddv_scf|^2 =  1.295E-10

      iter #   4 total cpu time :    30.3 secs   av.it.:   8.8
      thresh= 1.138E-06 alpha_mix =  0.700 |ddv_scf|^2 =  6.735E-12

      iter #   5 total cpu time :    30.7 secs   av.it.:   8.6
      thresh= 2.595E-07 alpha_mix =  0.700 |ddv_scf|^2 =  6.891E-15

      iter #   6 total cpu time :    31.1 secs   av.it.:   9.5
      thresh= 8.301E-09 alpha_mix =  0.700 |ddv_scf|^2 =  2.599E-17

     End of self-consistent calculation

     Convergence has been achieved 

     Number of q in the star =    6
     List of q in the star:
          1   0.000000000   0.500000000   0.000000000
          2   0.000000000  -0.500000000   0.000000000
          3   0.500000000   0.000000000   0.000000000
          4   0.000000000   0.000000000   0.500000000
          5   0.000000000   0.000000000  -0.500000000
          6  -0.500000000   0.000000000   0.000000000

     Diagonalizing the dynamical matrix

     q = (    0.000000000   0.500000000   0.000000000 ) 

 **************************************************************************
     freq (    1) =       3.774153 [THz] =     125.892179 [cm-1]
     freq (    2) =       3.774153 [THz] =     125.892179 [cm-1]
     freq (    3) =       7.166879 [THz] =     239.061366 [cm-1]
     freq (    4) =      14.177462 [THz] =     472.909218 [cm-1]
     freq (    5) =      14.177462 [THz] =     472.909218 [cm-1]
     freq (    6) =      14.884768 [THz] =     496.502415 [cm-1]
 **************************************************************************

     Mode symmetry, C_4v (4mm)  point group:

     freq (  1 -  2) =        125.9  [cm-1]   --> E    G_5 D_5       
     freq (  3 -  3) =        239.1  [cm-1]   --> A_1  G_1 D_1       
     freq (  4 -  5) =        472.9  [cm-1]   --> E    G_5 D_5       
     freq (  6 -  6) =        496.5  [cm-1]   --> B_2  G_4 D_2'      

     Calculation of q =    0.7500000  -0.2500000   0.7500000

     Parallelization info
     --------------------
     sticks:   dense  smooth     PW     G-vecs:    dense   smooth      PW
     Min          87      87     34                 1069     1069     266
     Max          88      88     35                 1071     1071     267
     Sum         349     349    139                 4279     4279    1067


     Title: 
     Ph                                                                         


     bravais-lattice index     =            2
     lattice parameter (alat)  =      10.2000  a.u.
     unit-cell volume          =     265.3020 (a.u.)^3
     number of atoms/cell      =            2
     number of atomic types    =            1
     number of electrons       =         8.00
     number of Kohn-Sham states=            4
     kinetic-energy cutoff     =      24.0000  Ry
     charge density cutoff     =      96.0000  Ry
     Exchange-correlation      = PZ ( 1  1  0  0 0 0)

     celldm(1)=  10.200000  celldm(2)=   0.000000  celldm(3)=   0.000000
     celldm(4)=   0.000000  celldm(5)=   0.000000  celldm(6)=   0.000000

     crystal axes: (cart. coord. in units of alat)
               a(1) = (  -0.500000   0.000000   0.500000 )  
               a(2) = (   0.000000   0.500000   0.500000 )  
               a(3) = (  -0.500000   0.500000   0.000000 )  

     reciprocal axes: (cart. coord. in units 2 pi/alat)
               b(1) = ( -1.000000 -1.000000  1.000000 )  
               b(2) = (  1.000000  1.000000  1.000000 )  
               b(3) = ( -1.000000  1.000000 -1.000000 )  


     PseudoPot. # 1 for Si read from file:
     ../Si.pz-rrkj.UPF
     MD5 check sum: 884b380b739b48e9cd334294cddc9a8d
     Pseudo is Norm-conserving, Zval =  4.0
     Generated using "atomic" code by A. Dal Corso (espresso distribution)
     Using radial grid of 1141 points,  2 beta functions with: 
                l(1) =   0
                l(2) =   1

     atomic species   valence    mass     pseudopotential
        Si             4.00    28.08600     Si( 1.00)

     48 Sym. Ops., with inversion, found



   Cartesian axes

     site n.     atom                  positions (alat units)
         1           Si  tau(   1) = (   0.0000000   0.0000000   0.0000000  )
         2           Si  tau(   2) = (   0.2500000   0.2500000   0.2500000  )

     number of k points=    80
                       cart. coord. in units 2pi/alat
        k(    1) = (   0.0000000   0.0000000   0.0000000), wk =   0.0312500
        k(    2) = (   0.7500000  -0.2500000   0.7500000), wk =   0.0000000
        k(    3) = (  -0.2500000   0.2500000  -0.2500000), wk =   0.0312500
        k(    4) = (   0.5000000   0.0000000   0.5000000), wk =   0.0000000
        k(    5) = (   0.5000000  -0.5000000   0.5000000), wk =   0.0312500
        k(    6) = (   1.2500000  -0.7500000   1.2500000), wk =   0.0000000
        k(    7) = (   0.0000000   0.5000000   0.0000000), wk =   0.0312500
        k(    8) = (   0.7500000   0.2500000   0.7500000), wk =   0.0000000
        k(    9) = (   0.7500000  -0.2500000   0.7500000), wk =   0.0312500
        k(   10) = (   1.5000000  -0.5000000   1.5000000), wk =   0.0000000
        k(   11) = (   0.5000000   0.0000000   0.5000000), wk =   0.0312500
        k(   12) = (   1.2500000  -0.2500000   1.2500000), wk =   0.0000000
        k(   13) = (   0.0000000  -1.0000000   0.0000000), wk =   0.0312500
        k(   14) = (   0.7500000  -1.2500000   0.7500000), wk =   0.0000000
        k(   15) = (  -0.5000000  -1.0000000   0.0000000), wk =   0.0625000
        k(   16) = (   0.2500000  -1.2500000   0.7500000), wk =   0.0000000
        k(   17) = (  -0.2500000   0.2500000   0.2500000), wk =   0.0625000
        k(   18) = (   0.5000000   0.0000000   1.0000000), wk =   0.0000000
        k(   19) = (   0.2500000   0.2500000   0.2500000), wk =   0.0312500
        k(   20) = (   1.0000000   0.0000000   1.0000000), wk =   0.0000000
        k(   21) = (   0.2500000  -0.2500000   0.2500000), wk =   0.0312500
        k(   22) = (   1.0000000  -0.5000000   1.0000000), wk =   0.0000000
        k(   23) = (  -0.2500000  -0.2500000  -0.2500000), wk =   0.0312500
        k(   24) = (   0.5000000  -0.5000000   0.5000000), wk =   0.0000000
        k(   25) = (   0.2500000  -0.2500000  -0.2500000), wk =   0.0625000
        k(   26) = (   1.0000000  -0.5000000   0.5000000), wk =   0.0000000
        k(   27) = (   0.5000000  -0.5000000  -0.5000000), wk =   0.0625000
        k(   28) = (   1.2500000  -0.7500000   0.2500000), wk =   0.0000000
        k(   29) = (  -0.5000000  -0.5000000  -0.5000000), wk =   0.0312500
        k(   30) = (   0.2500000  -0.7500000   0.2500000), wk =   0.0000000
        k(   31) = (   0.0000000  -0.5000000   0.0000000), wk =   0.0312500
        k(   32) = (   0.7500000  -0.7500000   0.7500000), wk =   0.0000000
        k(   33) = (   0.5000000   0.0000000   0.0000000), wk =   0.0625000
        k(   34) = (   1.2500000  -0.2500000   0.7500000), wk =   0.0000000
        k(   35) = (   0.0000000   0.0000000  -0.5000000), wk =   0.0625000
        k(   36) = (   0.7500000  -0.2500000   0.2500000), wk =   0.0000000
        k(   37) = (   0.7500000  -0.2500000  -0.7500000), wk =   0.0625000
        k(   38) = (   1.5000000  -0.5000000   0.0000000), wk =   0.0000000
        k(   39) = (  -0.7500000  -0.2500000  -0.7500000), wk =   0.0312500
        k(   40) = (   0.0000000  -0.5000000   0.0000000), wk =   0.0000000
        k(   41) = (  -0.7500000   0.2500000  -0.7500000), wk =   0.0312500
        k(   42) = (   0.0000000   0.0000000   0.0000000), wk =   0.0000000
        k(   43) = (  -0.2500000   0.7500000  -0.7500000), wk =   0.0625000
        k(   44) = (   0.5000000   0.5000000   0.0000000), wk =   0.0000000
        k(   45) = (   0.7500000   0.2500000   0.7500000), wk =   0.0312500
        k(   46) = (   1.5000000   0.0000000   1.5000000), wk =   0.0000000
        k(   47) = (  -0.7500000   0.2500000   0.7500000), wk =   0.0625000
        k(   48) = (   0.0000000   0.0000000   1.5000000), wk =   0.0000000
        k(   49) = (  -0.7500000   0.7500000   0.2500000), wk =   0.0625000
        k(   50) = (   0.0000000   0.5000000   1.0000000), wk =   0.0000000
        k(   51) = (  -0.2500000   0.7500000   0.7500000), wk =   0.0625000
        k(   52) = (   0.5000000   0.5000000   1.5000000), wk =   0.0000000
        k(   53) = (  -0.2500000  -0.7500000  -0.7500000), wk =   0.0625000
        k(   54) = (   0.5000000  -1.0000000   0.0000000), wk =   0.0000000
        k(   55) = (   0.7500000  -0.7500000   0.2500000), wk =   0.0625000
        k(   56) = (   1.5000000  -1.0000000   1.0000000), wk =   0.0000000
        k(   57) = (  -0.7500000  -0.7500000   0.2500000), wk =   0.0625000
        k(   58) = (   0.0000000  -1.0000000   1.0000000), wk =   0.0000000
        k(   59) = (   0.2500000   0.7500000   0.7500000), wk =   0.0625000
        k(   60) = (   1.0000000   0.5000000   1.5000000), wk =   0.0000000
        k(   61) = (  -0.2500000  -0.7500000   0.7500000), wk =   0.0625000
        k(   62) = (   0.5000000  -1.0000000   1.5000000), wk =   0.0000000
        k(   63) = (   0.5000000   0.0000000  -0.5000000), wk =   0.0625000
        k(   64) = (   1.2500000  -0.2500000   0.2500000), wk =   0.0000000
        k(   65) = (  -0.5000000   0.0000000  -0.5000000), wk =   0.0312500
        k(   66) = (   0.2500000  -0.2500000   0.2500000), wk =   0.0000000
        k(   67) = (   0.0000000   0.5000000  -0.5000000), wk =   0.0625000
        k(   68) = (   0.7500000   0.2500000   0.2500000), wk =   0.0000000
        k(   69) = (   0.0000000   0.5000000   0.5000000), wk =   0.0625000
        k(   70) = (   0.7500000   0.2500000   1.2500000), wk =   0.0000000
        k(   71) = (   0.0000000  -0.5000000  -0.5000000), wk =   0.0625000
        k(   72) = (   0.7500000  -0.7500000   0.2500000), wk =   0.0000000
        k(   73) = (   0.5000000  -0.5000000   0.0000000), wk =   0.0625000
        k(   74) = (   1.2500000  -0.7500000   0.7500000), wk =   0.0000000
        k(   75) = (  -1.0000000   0.0000000   0.0000000), wk =   0.0625000
        k(   76) = (  -0.2500000  -0.2500000   0.7500000), wk =   0.0000000
        k(   77) = (   0.5000000  -1.0000000   0.0000000), wk =   0.0625000
        k(   78) = (   1.2500000  -1.2500000   0.7500000), wk =   0.0000000
        k(   79) = (  -1.0000000  -0.5000000   0.0000000), wk =   0.0625000
        k(   80) = (  -0.2500000  -0.7500000   0.7500000), wk =   0.0000000

     Dense  grid:     4279 G-vectors     FFT dimensions: (  24,  24,  24)

     Estimated max dynamical RAM per process >       0.60 MB

     Estimated total dynamical RAM >       2.38 MB

     The potential is recalculated from file :
     ./tmp/_ph0/silicon.save/charge-density

     Starting wfcs are    8 atomic wfcs

     Band Structure Calculation
     Davidson diagonalization with overlap

     ethr =  1.25E-10,  avg # of iterations =  9.8

     total cpu time spent up to now is        2.4 secs

     End of band structure calculation

          k = 0.0000 0.0000 0.0000 (   531 PWs)   bands (ev):

    -5.8298   6.2602   6.2602   6.2602

          k = 0.7500-0.2500 0.7500 (   529 PWs)   bands (ev):

    -3.0601  -0.1827   2.6418   4.0173

          k =-0.2500 0.2500-0.2500 (   531 PWs)   bands (ev):

    -5.0163   2.2803   5.4898   5.4898

          k = 0.5000 0.0000 0.5000 (   524 PWs)   bands (ev):

    -3.7482   0.7368   2.4091   4.9135

          k = 0.5000-0.5000 0.5000 (   544 PWs)   bands (ev):

    -3.4435  -0.8222   5.0488   5.0488

          k = 1.2500-0.7500 1.2500 (   531 PWs)   bands (ev):

    -5.0163   2.2803   5.4898   5.4898

          k = 0.0000 0.5000 0.0000 (   528 PWs)   bands (ev):

    -4.7302   2.7329   4.3342   4.3342

          k = 0.7500 0.2500 0.7500 (   529 PWs)   bands (ev):

    -3.0601  -0.1827   2.6418   4.0173

          k = 0.7500-0.2500 0.7500 (   529 PWs)   bands (ev):

    -3.0601  -0.1827   2.6418   4.0173

          k = 1.5000-0.5000 1.5000 (   544 PWs)   bands (ev):

    -3.4435  -0.8222   5.0488   5.0488

          k = 0.5000 0.0000 0.5000 (   524 PWs)   bands (ev):

    -3.7482   0.7368   2.4091   4.9135

          k = 1.2500-0.2500 1.2500 (   529 PWs)   bands (ev):

    -3.0601  -0.1827   2.6418   4.0173

          k = 0.0000-1.0000 0.0000 (   524 PWs)   bands (ev):

    -1.6182  -1.6182   3.3581   3.3581

          k = 0.7500-1.2500 0.7500 (   531 PWs)   bands (ev):

    -5.0163   2.2803   5.4898   5.4898

          k =-0.5000-1.0000 0.0000 (   516 PWs)   bands (ev):

    -1.4420  -1.4420   2.3021   2.3021

          k = 0.2500-1.2500 0.7500 (   529 PWs)   bands (ev):

    -3.0601  -0.1827   2.6418   4.0173

          k =-0.2500 0.2500 0.2500 (   531 PWs)   bands (ev):

    -5.0163   2.2803   5.4898   5.4898

          k = 0.5000 0.0000 1.0000 (   516 PWs)   bands (ev):

    -1.4420  -1.4420   2.3021   2.3021

          k = 0.2500 0.2500 0.2500 (   531 PWs)   bands (ev):

    -5.0163   2.2803   5.4898   5.4898

          k = 1.0000 0.0000 1.0000 (   524 PWs)   bands (ev):

    -1.6182  -1.6182   3.3581   3.3581

          k = 0.2500-0.2500 0.2500 (   531 PWs)   bands (ev):

    -5.0163   2.2803   5.4898   5.4898

          k = 1.0000-0.5000 1.0000 (   528 PWs)   bands (ev):

    -4.7302   2.7329   4.3342   4.3342

          k =-0.2500-0.2500-0.2500 (   531 PWs)   bands (ev):

    -5.0163   2.2803   5.4898   5.4898

          k = 0.5000-0.5000 0.5000 (   544 PWs)   bands (ev):

    -3.4435  -0.8222   5.0488   5.0488

          k = 0.2500-0.2500-0.2500 (   531 PWs)   bands (ev):

    -5.0163   2.2803   5.4898   5.4898

          k = 1.0000-0.5000 0.5000 (   524 PWs)   bands (ev):

    -3.7482   0.7368   2.4091   4.9135

          k = 0.5000-0.5000-0.5000 (   544 PWs)   bands (ev):

    -3.4435  -0.8222   5.0488   5.0488

          k = 1.2500-0.7500 0.2500 (   529 PWs)   bands (ev):

    -3.0601  -0.1827   2.6418   4.0173

          k =-0.5000-0.5000-0.5000 (   544 PWs)   bands (ev):

    -3.4435  -0.8222   5.0488   5.0488

          k = 0.2500-0.7500 0.2500 (   529 PWs)   bands (ev):

    -3.0601  -0.1827   2.6418   4.0173

          k = 0.0000-0.5000 0.0000 (   528 PWs)   bands (ev):

    -4.7302   2.7329   4.3342   4.3342

          k = 0.7500-0.7500 0.7500 (   531 PWs)   bands (ev):

    -5.0163   2.2803   5.4898   5.4898

          k = 0.5000 0.0000 0.0000 (   528 PWs)   bands (ev):

    -4.7302   2.7329   4.3342   4.3342

          k = 1.2500-0.2500 0.7500 (   529 PWs)   bands (ev):

    -3.0601  -0.1827   2.6418   4.0173

          k = 0.0000 0.0000-0.5000 (   528 PWs)   bands (ev):

    -4.7302   2.7329   4.3342   4.3342

          k = 0.7500-0.2500 0.2500 (   529 PWs)   bands (ev):

    -3.0601  -0.1827   2.6418   4.0173

          k = 0.7500-0.2500-0.7500 (   529 PWs)   bands (ev):

    -3.0601  -0.1827   2.6418   4.0173

          k = 1.5000-0.5000 0.0000 (   524 PWs)   bands (ev):

    -3.7482   0.7368   2.4091   4.9135

          k =-0.7500-0.2500-0.7500 (   529 PWs)   bands (ev):

    -3.0601  -0.1827   2.6418   4.0173

          k = 0.0000-0.5000 0.0000 (   528 PWs)   bands (ev):

    -4.7302   2.7329   4.3342   4.3342

          k =-0.7500 0.2500-0.7500 (   529 PWs)   bands (ev):

    -3.0601  -0.1827   2.6418   4.0173

          k = 0.0000 0.0000 0.0000 (   531 PWs)   bands (ev):

    -5.8298   6.2602   6.2602   6.2602

          k =-0.2500 0.7500-0.7500 (   529 PWs)   bands (ev):

    -3.0601  -0.1827   2.6418   4.0173

          k = 0.5000 0.5000 0.0000 (   524 PWs)   bands (ev):

    -3.7482   0.7368   2.4091   4.9135

          k = 0.7500 0.2500 0.7500 (   529 PWs)   bands (ev):

    -3.0601  -0.1827   2.6418   4.0173

          k = 1.5000 0.0000 1.5000 (   524 PWs)   bands (ev):

    -3.7482   0.7368   2.4091   4.9135

          k =-0.7500 0.2500 0.7500 (   529 PWs)   bands (ev):

    -3.0601  -0.1827   2.6418   4.0173

          k = 0.0000 0.0000 1.5000 (   528 PWs)   bands (ev):

    -4.7302   2.7329   4.3342   4.3342

          k =-0.7500 0.7500 0.2500 (   529 PWs)   bands (ev):

    -3.0601  -0.1827   2.6418   4.0173

          k = 0.0000 0.5000 1.0000 (   516 PWs)   bands (ev):

    -1.4420  -1.4420   2.3021   2.3021

          k =-0.2500 0.7500 0.7500 (   529 PWs)   bands (ev):

    -3.0601  -0.1827   2.6418   4.0173

          k = 0.5000 0.5000 1.5000 (   544 PWs)   bands (ev):

    -3.4435  -0.8222   5.0488   5.0488

          k =-0.2500-0.7500-0.7500 (   529 PWs)   bands (ev):

    -3.0601  -0.1827   2.6418   4.0173

          k = 0.5000-1.0000 0.0000 (   516 PWs)   bands (ev):

    -1.4420  -1.4420   2.3021   2.3021

          k = 0.7500-0.7500 0.2500 (   529 PWs)   bands (ev):

    -3.0601  -0.1827   2.6418   4.0173

          k = 1.5000-1.0000 1.0000 (   528 PWs)   bands (ev):

    -4.7302   2.7329   4.3342   4.3342

          k =-0.7500-0.7500 0.2500 (   529 PWs)   bands (ev):

    -3.0601  -0.1827   2.6418   4.0173

          k = 0.0000-1.0000 1.0000 (   524 PWs)   bands (ev):

    -1.6182  -1.6182   3.3581   3.3581

          k = 0.2500 0.7500 0.7500 (   529 PWs)   bands (ev):

    -3.0601  -0.1827   2.6418   4.0173

          k = 1.0000 0.5000 1.5000 (   524 PWs)   bands (ev):

    -3.7482   0.7368   2.4091   4.9135

          k =-0.2500-0.7500 0.7500 (   529 PWs)   bands (ev):

    -3.0601  -0.1827   2.6418   4.0173

          k = 0.5000-1.0000 1.5000 (   524 PWs)   bands (ev):

    -3.7482   0.7368   2.4091   4.9135

          k = 0.5000 0.0000-0.5000 (   524 PWs)   bands (ev):

    -3.7482   0.7368   2.4091   4.9135

          k = 1.2500-0.2500 0.2500 (   529 PWs)   bands (ev):

    -3.0601  -0.1827   2.6418   4.0173

          k =-0.5000 0.0000-0.5000 (   524 PWs)   bands (ev):

    -3.7482   0.7368   2.4091   4.9135

          k = 0.2500-0.2500 0.2500 (   531 PWs)   bands (ev):

    -5.0163   2.2803   5.4898   5.4898

          k = 0.0000 0.5000-0.5000 (   524 PWs)   bands (ev):

    -3.7482   0.7368   2.4091   4.9135

          k = 0.7500 0.2500 0.2500 (   529 PWs)   bands (ev):

    -3.0601  -0.1827   2.6418   4.0173

          k = 0.0000 0.5000 0.5000 (   524 PWs)   bands (ev):

    -3.7482   0.7368   2.4091   4.9135

          k = 0.7500 0.2500 1.2500 (   529 PWs)   bands (ev):

    -3.0601  -0.1827   2.6418   4.0173

          k = 0.0000-0.5000-0.5000 (   524 PWs)   bands (ev):

    -3.7482   0.7368   2.4091   4.9135

          k = 0.7500-0.7500 0.2500 (   529 PWs)   bands (ev):

    -3.0601  -0.1827   2.6418   4.0173

          k = 0.5000-0.5000 0.0000 (   524 PWs)   bands (ev):

    -3.7482   0.7368   2.4091   4.9135

          k = 1.2500-0.7500 0.7500 (   531 PWs)   bands (ev):

    -5.0163   2.2803   5.4898   5.4898

          k =-1.0000 0.0000 0.0000 (   524 PWs)   bands (ev):

    -1.6182  -1.6182   3.3581   3.3581

          k =-0.2500-0.2500 0.7500 (   529 PWs)   bands (ev):

    -3.0601  -0.1827   2.6418   4.0173

          k = 0.5000-1.0000 0.0000 (   516 PWs)   bands (ev):

    -1.4420  -1.4420   2.3021   2.3021

[...]
     lattice parameter (alat)  =      10.2000  a.u.
     unit-cell volume          =     265.3020 (a.u.)^3
     number of atoms/cell      =            2
     number of atomic types    =            1
     number of electrons       =         8.00
     number of Kohn-Sham states=            4
     kinetic-energy cutoff     =      24.0000  Ry
     charge density cutoff     =      96.0000  Ry
     Exchange-correlation      = PZ ( 1  1  0  0 0 0)

     celldm(1)=  10.200000  celldm(2)=   0.000000  celldm(3)=   0.000000
     celldm(4)=   0.000000  celldm(5)=   0.000000  celldm(6)=   0.000000

     crystal axes: (cart. coord. in units of alat)
               a(1) = (  -0.500000   0.000000   0.500000 )  
               a(2) = (   0.000000   0.500000   0.500000 )  
               a(3) = (  -0.500000   0.500000   0.000000 )  

     reciprocal axes: (cart. coord. in units 2 pi/alat)
               b(1) = ( -1.000000 -1.000000  1.000000 )  
               b(2) = (  1.000000  1.000000  1.000000 )  
               b(3) = ( -1.000000  1.000000 -1.000000 )  


     PseudoPot. # 1 for Si read from file:
     ../Si.pz-rrkj.UPF
     MD5 check sum: 884b380b739b48e9cd334294cddc9a8d
     Pseudo is Norm-conserving, Zval =  4.0
     Generated using "atomic" code by A. Dal Corso (espresso distribution)
     Using radial grid of 1141 points,  2 beta functions with: 
                l(1) =   0
                l(2) =   1

     atomic species   valence    mass     pseudopotential
        Si             4.00    28.08600     Si( 1.00)

     48 Sym. Ops., with inversion, found



   Cartesian axes

     site n.     atom                  positions (alat units)
         1           Si  tau(   1) = (   0.0000000   0.0000000   0.0000000  )
         2           Si  tau(   2) = (   0.2500000   0.2500000   0.2500000  )

     number of k points=    32
                       cart. coord. in units 2pi/alat
        k(    1) = (   0.0000000   0.0000000   0.0000000), wk =   0.0312500
        k(    2) = (  -0.5000000  -1.0000000   0.0000000), wk =   0.0000000
        k(    3) = (  -0.2500000   0.2500000  -0.2500000), wk =   0.2500000
        k(    4) = (  -0.7500000  -0.7500000  -0.2500000), wk =   0.0000000
        k(    5) = (   0.5000000  -0.5000000   0.5000000), wk =   0.1250000
        k(    6) = (   0.0000000  -1.5000000   0.5000000), wk =   0.0000000
        k(    7) = (   0.0000000   0.5000000   0.0000000), wk =   0.1250000
        k(    8) = (  -0.5000000  -0.5000000   0.0000000), wk =   0.0000000
        k(    9) = (   0.7500000  -0.2500000   0.7500000), wk =   0.2500000
        k(   10) = (   0.2500000  -1.2500000   0.7500000), wk =   0.0000000
        k(   11) = (   0.5000000   0.0000000   0.5000000), wk =   0.1250000
        k(   12) = (   0.0000000  -1.0000000   0.5000000), wk =   0.0000000
        k(   13) = (   0.0000000  -1.0000000   0.0000000), wk =   0.0625000
        k(   14) = (  -0.5000000  -2.0000000   0.0000000), wk =   0.0000000
        k(   15) = (  -0.5000000  -1.0000000   0.0000000), wk =   0.0312500
        k(   16) = (  -1.0000000  -2.0000000   0.0000000), wk =   0.0000000
        k(   17) = (   0.5000000   0.0000000   0.0000000), wk =   0.0625000
        k(   18) = (   0.0000000  -1.0000000   0.0000000), wk =   0.0000000
        k(   19) = (  -0.7500000   0.2500000  -0.7500000), wk =   0.2500000
        k(   20) = (  -1.2500000  -0.7500000  -0.7500000), wk =   0.0000000
        k(   21) = (  -0.2500000   0.7500000   0.7500000), wk =   0.2500000
        k(   22) = (  -0.7500000  -0.2500000   0.7500000), wk =   0.0000000
        k(   23) = (  -0.5000000   0.0000000  -0.5000000), wk =   0.1250000
        k(   24) = (  -1.0000000  -1.0000000  -0.5000000), wk =   0.0000000
        k(   25) = (   0.0000000   0.5000000   0.5000000), wk =   0.1250000
        k(   26) = (  -0.5000000  -0.5000000   0.5000000), wk =   0.0000000
        k(   27) = (  -1.0000000   0.0000000   0.0000000), wk =   0.0312500
        k(   28) = (  -1.5000000  -1.0000000   0.0000000), wk =   0.0000000
        k(   29) = (   0.0000000   1.0000000   0.5000000), wk =   0.1250000
        k(   30) = (  -0.5000000   0.0000000   0.5000000), wk =   0.0000000
        k(   31) = (   0.5000000   1.0000000   0.0000000), wk =   0.0312500
        k(   32) = (   0.0000000   0.0000000   0.0000000), wk =   0.0000000

     Dense  grid:     4279 G-vectors     FFT dimensions: (  24,  24,  24)

     Estimated max dynamical RAM per process >       0.60 MB

     Estimated total dynamical RAM >       2.38 MB

     The potential is recalculated from file :
     ./tmp/_ph0/silicon.save/charge-density

     Starting wfcs are    8 atomic wfcs

     Band Structure Calculation
     Davidson diagonalization with overlap

     ethr =  1.25E-10,  avg # of iterations =  9.4

     total cpu time spent up to now is        3.7 secs

     End of band structure calculation

          k = 0.0000 0.0000 0.0000 (   531 PWs)   bands (ev):

    -5.8298   6.2602   6.2602   6.2602

          k =-0.5000-1.0000 0.0000 (   516 PWs)   bands (ev):

    -1.4420  -1.4420   2.3021   2.3021

          k =-0.2500 0.2500-0.2500 (   531 PWs)   bands (ev):

    -5.0163   2.2803   5.4898   5.4898

          k =-0.7500-0.7500-0.2500 (   529 PWs)   bands (ev):

    -3.0601  -0.1827   2.6418   4.0173

          k = 0.5000-0.5000 0.5000 (   544 PWs)   bands (ev):

    -3.4435  -0.8222   5.0488   5.0488

          k = 0.0000-1.5000 0.5000 (   524 PWs)   bands (ev):

    -3.7482   0.7368   2.4091   4.9135

          k = 0.0000 0.5000 0.0000 (   528 PWs)   bands (ev):

    -4.7302   2.7329   4.3342   4.3342

          k =-0.5000-0.5000 0.0000 (   524 PWs)   bands (ev):

    -3.7482   0.7368   2.4091   4.9135

          k = 0.7500-0.2500 0.7500 (   529 PWs)   bands (ev):

    -3.0601  -0.1827   2.6418   4.0173

          k = 0.2500-1.2500 0.7500 (   529 PWs)   bands (ev):

    -3.0601  -0.1827   2.6418   4.0173

          k = 0.5000 0.0000 0.5000 (   524 PWs)   bands (ev):

    -3.7482   0.7368   2.4091   4.9135

          k = 0.0000-1.0000 0.5000 (   516 PWs)   bands (ev):

    -1.4420  -1.4420   2.3021   2.3021

          k = 0.0000-1.0000 0.0000 (   524 PWs)   bands (ev):

    -1.6182  -1.6182   3.3581   3.3581

          k =-0.5000-2.0000 0.0000 (   528 PWs)   bands (ev):

    -4.7302   2.7329   4.3342   4.3342

          k =-0.5000-1.0000 0.0000 (   516 PWs)   bands (ev):

    -1.4420  -1.4420   2.3021   2.3021

          k =-1.0000-2.0000 0.0000 (   524 PWs)   bands (ev):

    -1.6182  -1.6182   3.3581   3.3581

          k = 0.5000 0.0000 0.0000 (   528 PWs)   bands (ev):

    -4.7302   2.7329   4.3342   4.3342

          k = 0.0000-1.0000 0.0000 (   524 PWs)   bands (ev):

    -1.6182  -1.6182   3.3581   3.3581

          k =-0.7500 0.2500-0.7500 (   529 PWs)   bands (ev):

    -3.0601  -0.1827   2.6418   4.0173

          k =-1.2500-0.7500-0.7500 (   531 PWs)   bands (ev):

    -5.0163   2.2803   5.4898   5.4898

          k =-0.2500 0.7500 0.7500 (   529 PWs)   bands (ev):

    -3.0601  -0.1827   2.6418   4.0173

          k =-0.7500-0.2500 0.7500 (   529 PWs)   bands (ev):

    -3.0601  -0.1827   2.6418   4.0173

          k =-0.5000 0.0000-0.5000 (   524 PWs)   bands (ev):

    -3.7482   0.7368   2.4091   4.9135

          k =-1.0000-1.0000-0.5000 (   528 PWs)   bands (ev):

    -4.7302   2.7329   4.3342   4.3342

          k = 0.0000 0.5000 0.5000 (   524 PWs)   bands (ev):

    -3.7482   0.7368   2.4091   4.9135

          k =-0.5000-0.5000 0.5000 (   544 PWs)   bands (ev):

    -3.4435  -0.8222   5.0488   5.0488

          k =-1.0000 0.0000 0.0000 (   524 PWs)   bands (ev):

    -1.6182  -1.6182   3.3581   3.3581

          k =-1.5000-1.0000 0.0000 (   516 PWs)   bands (ev):

    -1.4420  -1.4420   2.3021   2.3021

          k = 0.0000 1.0000 0.5000 (   516 PWs)   bands (ev):

    -1.4420  -1.4420   2.3021   2.3021

          k =-0.5000 0.0000 0.5000 (   524 PWs)   bands (ev):

    -3.7482   0.7368   2.4091   4.9135

          k = 0.5000 1.0000 0.0000 (   516 PWs)   bands (ev):

    -1.4420  -1.4420   2.3021   2.3021

          k = 0.0000 0.0000 0.0000 (   531 PWs)   bands (ev):

    -5.8298   6.2602   6.2602   6.2602

     highest occupied level (ev):     6.2602

     Writing output data file silicon.save/

     Ph                                                                         

     bravais-lattice index     =            2
     lattice parameter (alat)  =      10.2000  a.u.
     unit-cell volume          =     265.3020 (a.u.)^3
     number of atoms/cell      =            2
     number of atomic types    =            1
     kinetic-energy cut-off    =      24.0000  Ry
     charge density cut-off    =      96.0000  Ry
     convergence threshold     =      1.0E-16
     beta                      =       0.7000
     number of iterations used =            4
     Exchange-correlation      = PZ ( 1  1  0  0 0 0)


     celldm(1)=   10.20000  celldm(2)=    0.00000  celldm(3)=    0.00000
     celldm(4)=    0.00000  celldm(5)=    0.00000  celldm(6)=    0.00000

     crystal axes: (cart. coord. in units of alat)
               a(1) = ( -0.5000  0.0000  0.5000 )  
               a(2) = (  0.0000  0.5000  0.5000 )  
               a(3) = ( -0.5000  0.5000  0.0000 )  

     reciprocal axes: (cart. coord. in units 2 pi/alat)
               b(1) = ( -1.0000 -1.0000  1.0000 )  
               b(2) = (  1.0000  1.0000  1.0000 )  
               b(3) = ( -1.0000  1.0000 -1.0000 )  


     Atoms inside the unit cell: 

     Cartesian axes

     site n.  atom      mass           positions (alat units)
        1     Si  28.0860   tau(    1) = (    0.00000    0.00000    0.00000  )
        2     Si  28.0860   tau(    2) = (    0.25000    0.25000    0.25000  )

     Computing dynamical matrix for 
                    q = (  -0.5000000  -1.0000000   0.0000000 )

      8 Sym.Ops. (no q -> -q+G )


     G cutoff =  252.9949  (   1069 G-vectors)     FFT grid: ( 24, 24, 24)
     number of k points=    32

     PseudoPot. # 1 for Si read from file:
     ../Si.pz-rrkj.UPF
     MD5 check sum: 884b380b739b48e9cd334294cddc9a8d
     Pseudo is Norm-conserving, Zval =  4.0
     Generated using "atomic" code by A. Dal Corso (espresso distribution)
     Using radial grid of 1141 points,  2 beta functions with: 
                l(1) =   0
                l(2) =   1


     Atomic displacements:
     There are   3 irreducible representations

     Representation     1      2 modes -  To be done

     Representation     2      2 modes -  To be done

     Representation     3      2 modes -  To be done



     Alpha used in Ewald sum =   1.0000
     PHONON       :   1m 5.32s CPU   1m13.22s WALL



     Representation #  1 modes #   1  2

     Self-consistent Calculation

      iter #   1 total cpu time :    73.5 secs   av.it.:   5.7
      thresh= 1.000E-02 alpha_mix =  0.700 |ddv_scf|^2 =  5.993E-06

      iter #   2 total cpu time :    73.7 secs   av.it.:   9.0
      thresh= 2.448E-04 alpha_mix =  0.700 |ddv_scf|^2 =  7.391E-06

      iter #   3 total cpu time :    74.0 secs   av.it.:   8.5
      thresh= 2.719E-04 alpha_mix =  0.700 |ddv_scf|^2 =  8.940E-10

      iter #   4 total cpu time :    74.2 secs   av.it.:   8.7
      thresh= 2.990E-06 alpha_mix =  0.700 |ddv_scf|^2 =  2.568E-11

      iter #   5 total cpu time :    74.5 secs   av.it.:   8.4
      thresh= 5.068E-07 alpha_mix =  0.700 |ddv_scf|^2 =  6.688E-14

      iter #   6 total cpu time :    74.8 secs   av.it.:   8.2
      thresh= 2.586E-08 alpha_mix =  0.700 |ddv_scf|^2 =  1.268E-15

      iter #   7 total cpu time :    75.2 secs   av.it.:   8.8
      thresh= 3.562E-09 alpha_mix =  0.700 |ddv_scf|^2 =  2.727E-17

     End of self-consistent calculation

     Convergence has been achieved 


     Representation #  2 modes #   3  4

     Self-consistent Calculation

      iter #   1 total cpu time :    75.4 secs   av.it.:   5.6
      thresh= 1.000E-02 alpha_mix =  0.700 |ddv_scf|^2 =  3.063E-06

      iter #   2 total cpu time :    75.8 secs   av.it.:   9.1
      thresh= 1.750E-04 alpha_mix =  0.700 |ddv_scf|^2 =  2.138E-06

      iter #   3 total cpu time :    76.1 secs   av.it.:   8.5
      thresh= 1.462E-04 alpha_mix =  0.700 |ddv_scf|^2 =  2.030E-10

      iter #   4 total cpu time :    76.4 secs   av.it.:   8.6
      thresh= 1.425E-06 alpha_mix =  0.700 |ddv_scf|^2 =  1.293E-11

      iter #   5 total cpu time :    76.7 secs   av.it.:   8.6
      thresh= 3.595E-07 alpha_mix =  0.700 |ddv_scf|^2 =  1.990E-14

      iter #   6 total cpu time :    77.0 secs   av.it.:   9.2
      thresh= 1.411E-08 alpha_mix =  0.700 |ddv_scf|^2 =  2.468E-16

      iter #   7 total cpu time :    77.2 secs   av.it.:   9.2
      thresh= 1.571E-09 alpha_mix =  0.700 |ddv_scf|^2 =  2.362E-17

     End of self-consistent calculation

     Convergence has been achieved 


     Representation #  3 modes #   5  6

     Self-consistent Calculation

      iter #   1 total cpu time :    77.4 secs   av.it.:   5.7
      thresh= 1.000E-02 alpha_mix =  0.700 |ddv_scf|^2 =  3.710E-06

      iter #   2 total cpu time :    77.6 secs   av.it.:   9.2
      thresh= 1.926E-04 alpha_mix =  0.700 |ddv_scf|^2 =  2.660E-06

      iter #   3 total cpu time :    77.9 secs   av.it.:   8.6
      thresh= 1.631E-04 alpha_mix =  0.700 |ddv_scf|^2 =  1.802E-10

      iter #   4 total cpu time :    78.2 secs   av.it.:   8.8
      thresh= 1.342E-06 alpha_mix =  0.700 |ddv_scf|^2 =  2.153E-11

      iter #   5 total cpu time :    78.4 secs   av.it.:   8.6
      thresh= 4.640E-07 alpha_mix =  0.700 |ddv_scf|^2 =  1.076E-14

      iter #   6 total cpu time :    78.8 secs   av.it.:   9.2
      thresh= 1.038E-08 alpha_mix =  0.700 |ddv_scf|^2 =  2.176E-16

      iter #   7 total cpu time :    79.0 secs   av.it.:   9.3
      thresh= 1.475E-09 alpha_mix =  0.700 |ddv_scf|^2 =  1.872E-17

     End of self-consistent calculation

     Convergence has been achieved 

     Number of q in the star =    6
     List of q in the star:
          1  -0.500000000  -1.000000000   0.000000000
          2   0.000000000   1.000000000   0.500000000
          3   0.000000000  -1.000000000  -0.500000000
          4   0.500000000   1.000000000   0.000000000
          5  -1.000000000  -0.500000000   0.000000000
          6   0.000000000  -0.500000000  -1.000000000

     Diagonalizing the dynamical matrix

     q = (   -0.500000000  -1.000000000   0.000000000 ) 

 **************************************************************************
     freq (    1) =       6.348401 [THz] =     211.759850 [cm-1]
     freq (    2) =       6.348401 [THz] =     211.759850 [cm-1]
     freq (    3) =      10.502349 [THz] =     350.320648 [cm-1]
     freq (    4) =      10.502349 [THz] =     350.320648 [cm-1]
     freq (    5) =      13.648943 [THz] =     455.279721 [cm-1]
     freq (    6) =      13.648943 [THz] =     455.279721 [cm-1]
 **************************************************************************

     init_run     :      0.16s CPU      0.16s WALL (       7 calls)
     electrons    :      3.20s CPU      3.49s WALL (       7 calls)

     Called by init_run:
     wfcinit      :      0.00s CPU      0.00s WALL (       7 calls)
     potinit      :      0.00s CPU      0.01s WALL (       7 calls)
     hinit0       :      0.13s CPU      0.13s WALL (       7 calls)

     Called by electrons:
     c_bands      :      3.19s CPU      3.48s WALL (       7 calls)
     v_of_rho     :      0.00s CPU      0.00s WALL (       8 calls)

     Called by c_bands:
     init_us_2    :      0.23s CPU      0.26s WALL (    7411 calls)
     cegterg      :      2.67s CPU      2.91s WALL (     292 calls)

     Called by sum_band:

     Called by *egterg:
     h_psi        :     47.65s CPU     53.40s WALL (   75266 calls)
     g_psi        :      0.02s CPU      0.02s WALL (    2822 calls)
     cdiaghg      :      0.19s CPU      0.21s WALL (    3114 calls)

     Called by h_psi:
     h_psi:pot    :     47.35s CPU     53.05s WALL (   75266 calls)
     h_psi:calbec :      1.66s CPU      1.85s WALL (   75266 calls)
     vloc_psi     :     44.55s CPU     49.93s WALL (   75266 calls)
     add_vuspsi   :      0.62s CPU      0.70s WALL (   75266 calls)

     General routines
     calbec       :      2.50s CPU      2.81s WALL (  152386 calls)
     fft          :      0.62s CPU      0.63s WALL (    1154 calls)
     ffts         :      0.14s CPU      0.16s WALL (    1164 calls)
     fftw         :     48.04s CPU     53.93s WALL (  662908 calls)
     davcio       :      0.39s CPU      0.44s WALL (   38002 calls)

     Parallel routines
     fft_scatt_xy :      6.98s CPU      7.86s WALL (  665226 calls)
     fft_scatt_yz :     18.43s CPU     20.56s WALL (  665226 calls)

     PHONON       :   1m10.46s CPU   1m19.03s WALL

     INITIALIZATION: 
     phq_setup    :      0.03s CPU      0.03s WALL (       8 calls)
     phq_init     :      0.26s CPU      0.26s WALL (       8 calls)

     phq_init     :      0.26s CPU      0.26s WALL (       8 calls)
     init_vloc    :      0.01s CPU      0.01s WALL (       8 calls)
     init_us_1    :      0.07s CPU      0.07s WALL (       8 calls)

     DYNAMICAL MATRIX:
     dynmat0      :      0.06s CPU      0.06s WALL (       8 calls)
     phqscf       :     64.90s CPU     72.93s WALL (       8 calls)
     dynmatrix    :      0.03s CPU      0.03s WALL (       8 calls)

     phqscf       :     64.90s CPU     72.93s WALL (       8 calls)
     solve_linter :     64.72s CPU     72.67s WALL (      32 calls)
     drhodv       :      0.13s CPU      0.16s WALL (      32 calls)

     dynmat0      :      0.06s CPU      0.06s WALL (       8 calls)
     dynmat_us    :      0.04s CPU      0.04s WALL (       8 calls)
     d2ionq       :      0.00s CPU      0.00s WALL (       8 calls)

     dynmat_us    :      0.04s CPU      0.04s WALL (       8 calls)

     phqscf       :     64.90s CPU     72.93s WALL (       8 calls)
     solve_linter :     64.72s CPU     72.67s WALL (      32 calls)

     solve_linter :     64.72s CPU     72.67s WALL (      32 calls)
     dvqpsi_us    :      0.84s CPU      0.95s WALL (     972 calls)
     ortho        :      0.21s CPU      0.24s WALL (    7618 calls)
     cgsolve      :     50.45s CPU     56.64s WALL (    7618 calls)
     incdrhoscf   :      4.99s CPU      5.66s WALL (    7594 calls)
     vpsifft      :      4.35s CPU      4.94s WALL (    6526 calls)
     dv_of_drho   :      0.63s CPU      0.64s WALL (     374 calls)
     mix_pot      :      0.12s CPU      0.14s WALL (     261 calls)
     psymdvscf    :      3.18s CPU      3.25s WALL (     255 calls)

     dvqpsi_us    :      0.84s CPU      0.95s WALL (     972 calls)
     dvqpsi_us_on :      0.06s CPU      0.06s WALL (     972 calls)

     cgsolve      :     50.45s CPU     56.64s WALL (    7618 calls)
     ch_psi       :     49.08s CPU     55.09s WALL (   71860 calls)

     ch_psi       :     49.08s CPU     55.09s WALL (   71860 calls)
     h_psi        :     47.65s CPU     53.40s WALL (   75266 calls)
     last         :      2.99s CPU      3.35s WALL (   71860 calls)

     h_psi        :     47.65s CPU     53.40s WALL (   75266 calls)
     add_vuspsi   :      0.62s CPU      0.70s WALL (   75266 calls)

     incdrhoscf   :      4.99s CPU      5.66s WALL (    7594 calls)


      General routines
     calbec       :      2.50s CPU      2.81s WALL (  152386 calls)
     fft          :      0.62s CPU      0.63s WALL (    1154 calls)
     ffts         :      0.14s CPU      0.16s WALL (    1164 calls)
     fftw         :     48.04s CPU     53.93s WALL (  662908 calls)
     davcio       :      0.39s CPU      0.44s WALL (   38002 calls)
     write_rec    :      0.29s CPU      0.69s WALL (     293 calls)


     PHONON       :   1m10.46s CPU   1m19.03s WALL


   This run was terminated on:  10:31: 8  25Jun2019            

=------------------------------------------------------------------------------=
   JOB DONE.
=------------------------------------------------------------------------------=
