
     Program PHONON v.7.5 starts on 22Aug2025 at  9: 8:33 

     This program is part of the open-source Quantum ESPRESSO suite
     for quantum simulation of materials; please cite
         "P. Giannozzi et al., J. Phys.:Condens. Matter 21 395502 (2009);
         "P. Giannozzi et al., J. Phys.:Condens. Matter 29 465901 (2017);
         "P. Giannozzi et al., J. Chem. Phys. 152 154105 (2020);
          URL http://www.quantum-espresso.org", 
     in publications or presentations arising from this work. More details at
     http://www.quantum-espresso.org/quote

     Parallel version (MPI), running on     1 processors

     MPI processes distributed on     1 nodes
     1490 MiB available memory on the printing compute node when the environment starts

     Reading input from ph.in

     Reading xml data from directory:

     ./tmp/silicon.save/

     Subspace diagonalization in iterative solution of the eigenvalue problem:
     a serial algorithm will be used


     IMPORTANT: XC functional enforced from input :
     Exchange-correlation= PZ
                           (   1   1   0   0   0   0   0)
     Any further DFT definition will be discarded
     Please, verify this is what you really want


     G-vector sticks info
     --------------------
     sticks:   dense  smooth     PW     G-vecs:    dense   smooth      PW
     Sum         349     349    109                 4279     4279     749

     Using Slab Decomposition

     Reading collected, re-writing distributed wavefunctions in ./tmp/


     Dynamical matrices for ( 4, 4, 4)  uniform grid of q-points
     (   8 q-points):
       N         xq(1)         xq(2)         xq(3) 
       1   0.000000000   0.000000000   0.000000000
       2  -0.250000000   0.250000000  -0.250000000
       3   0.500000000  -0.500000000   0.500000000
       4   0.000000000   0.500000000   0.000000000
       5   0.750000000  -0.250000000   0.750000000
       6   0.500000000   0.000000000   0.500000000
       7   0.000000000  -1.000000000   0.000000000
       8  -0.500000000  -1.000000000   0.000000000

     Number and degeneracy of irreps per q-point
       N         xq(1)         xq(2)         xq(3)   N irreps
       1   0.000000000   0.000000000   0.000000000       2
        3   3
       2  -0.250000000   0.250000000  -0.250000000       4
        1   1   2   2
       3   0.500000000  -0.500000000   0.500000000       4
        1   1   2   2
       4   0.000000000   0.500000000   0.000000000       4
        1   1   2   2
       5   0.750000000  -0.250000000   0.750000000       6
     No degeneracy
       6   0.500000000   0.000000000   0.500000000       6
     No degeneracy
       7   0.000000000  -1.000000000   0.000000000       3
        2   2   2
       8  -0.500000000  -1.000000000   0.000000000       3
        2   2   2

     Calculation of q =    0.0000000   0.0000000   0.0000000

     Ph                                                                         

     bravais-lattice index     =            2
     lattice parameter (alat)  =      10.2000  a.u.
     unit-cell volume          =     265.3020 (a.u.)^3
     number of atoms/cell      =            2
     number of atomic types    =            1
     kinetic-energy cut-off    =      24.0000  Ry
     charge density cut-off    =      96.0000  Ry
     convergence threshold     =      1.0E-16
     beta                      =       0.7000
     number of iterations used =            4
     Exchange-correlation= PZ
                           (   1   1   0   0   0   0   0)


     celldm(1)=   10.20000  celldm(2)=    0.00000  celldm(3)=    0.00000
     celldm(4)=    0.00000  celldm(5)=    0.00000  celldm(6)=    0.00000

     crystal axes: (cart. coord. in units of alat)
               a(1) = ( -0.5000  0.0000  0.5000 )  
               a(2) = (  0.0000  0.5000  0.5000 )  
               a(3) = ( -0.5000  0.5000  0.0000 )  

     reciprocal axes: (cart. coord. in units 2 pi/alat)
               b(1) = ( -1.0000 -1.0000  1.0000 )  
               b(2) = (  1.0000  1.0000  1.0000 )  
               b(3) = ( -1.0000  1.0000 -1.0000 )  


     Atoms inside the unit cell: 

     Cartesian axes

     site n.  atom      mass           positions (alat units)
        1  Si     28.0860   tau(    1) = (    0.00000    0.00000    0.00000  )
        2  Si     28.0860   tau(    2) = (    0.25000    0.25000    0.25000  )

     Computing dynamical matrix for 
                    q = (   0.0000000   0.0000000   0.0000000 )

     49 Sym.Ops. (with q -> -q+G )


     G cutoff =  252.9949  (   4279 G-vectors)     FFT grid: ( 24, 24, 24)
     number of k points=     8

     PseudoPot. # 1 for Si read from file:
     ./UPF/Si.pz-rrkj.UPF
     MD5 check sum: 884b380b739b48e9cd334294cddc9a8d
     Pseudo is Norm-conserving, Zval =  4.0
     Generated using "atomic" code by A. Dal Corso (espresso distribution)
     Using radial grid of 1141 points,  2 beta functions with: 
                l(1) =   0
                l(2) =   1

     Mode symmetry, O_h (m-3m)  point group:


     Electric field:
     Dielectric constant
     Born effective charges in two ways 


     Atomic displacements:
     There are    2 irreducible representations

     Representation     1      3 modes -  To be done

     Representation     2      3 modes -  To be done



     Alpha used in Ewald sum =   1.0000
     PHONON       :      0.18s CPU      0.19s WALL


     Electric Fields Calculation

      iter #   1 total cpu time :     0.6 secs   av.it.:   5.7
      thresh= 1.000E-02 alpha_mix =  0.700 |ddv_scf|^2 =  5.773E-07

      iter #   2 total cpu time :     0.7 secs   av.it.:   8.9
      thresh= 7.598E-05 alpha_mix =  0.700 |ddv_scf|^2 =  2.533E-08

      iter #   3 total cpu time :     0.9 secs   av.it.:   9.0
      thresh= 1.592E-05 alpha_mix =  0.700 |ddv_scf|^2 =  4.459E-10

      iter #   4 total cpu time :     1.0 secs   av.it.:   9.2
      thresh= 2.112E-06 alpha_mix =  0.700 |ddv_scf|^2 =  2.296E-12

      iter #   5 total cpu time :     1.2 secs   av.it.:   8.9
      thresh= 1.515E-07 alpha_mix =  0.700 |ddv_scf|^2 =  9.575E-16

      iter #   6 total cpu time :     1.3 secs   av.it.:   9.0
      thresh= 3.094E-09 alpha_mix =  0.700 |ddv_scf|^2 =  1.374E-17

     End of electric fields calculation

          Dielectric constant in cartesian axis 

          (      24.590174619       0.000000000      -0.000000000 )
          (       0.000000000      24.590174619      -0.000000000 )
          (      -0.000000000       0.000000000      24.590174619 )

          Effective charges (d Force / dE) in cartesian axis without acoustic sum rule applied (asr)

           atom    1  Si    Mean Z*:       -1.22722
      Ex  (       -1.22722       -0.00000        0.00000 )
      Ey  (       -0.00000       -1.22722        0.00000 )
      Ez  (       -0.00000        0.00000       -1.22722 )
           atom    2  Si    Mean Z*:       -1.22722
      Ex  (       -1.22722       -0.00000        0.00000 )
      Ey  (       -0.00000       -1.22722        0.00000 )
      Ez  (       -0.00000        0.00000       -1.22722 )

          Effective charges Sum: Mean:       -2.45444
             -2.45444       -0.00000       -0.00000
             -0.00000       -2.45444        0.00000
              0.00000        0.00000       -2.45444

          Effective charges (d Force / dE) in cartesian axis with asr applied: 
           atom    1  Si    Mean Z*:       -0.00000
      E*x (       -0.00000       -0.00000        0.00000 )
      E*y (       -0.00000       -0.00000        0.00000 )
      E*z (       -0.00000        0.00000       -0.00000 )
           atom    2  Si    Mean Z*:        0.00000
      E*x (        0.00000        0.00000        0.00000 )
      E*y (        0.00000        0.00000       -0.00000 )
      E*z (        0.00000       -0.00000        0.00000 )

     Calling punch_plot_e
     Writing on file  drho                                                                                                                                                                                                                                                            


     Representation #   1 modes #   1   2   3

     Self-consistent Calculation

      iter #   1 total cpu time :     1.4 secs   av.it.:   4.8
      thresh= 1.000E-02 alpha_mix =  0.700 |ddv_scf|^2 =  1.089E-07

      iter #   2 total cpu time :     1.6 secs   av.it.:   8.8
      thresh= 3.300E-05 alpha_mix =  0.700 |ddv_scf|^2 =  1.822E-09

      iter #   3 total cpu time :     1.7 secs   av.it.:   8.8
      thresh= 4.269E-06 alpha_mix =  0.700 |ddv_scf|^2 =  2.625E-11

      iter #   4 total cpu time :     1.8 secs   av.it.:   8.2
      thresh= 5.123E-07 alpha_mix =  0.700 |ddv_scf|^2 =  1.957E-14

      iter #   5 total cpu time :     2.0 secs   av.it.:   9.1
      thresh= 1.399E-08 alpha_mix =  0.700 |ddv_scf|^2 =  1.640E-16

      iter #   6 total cpu time :     2.1 secs   av.it.:   8.8
      thresh= 1.281E-09 alpha_mix =  0.700 |ddv_scf|^2 =  1.940E-18

     End of self-consistent calculation

     Convergence has been achieved 


     Representation #   2 modes #   4   5   6

     Self-consistent Calculation

      iter #   1 total cpu time :     2.2 secs   av.it.:   5.1
      thresh= 1.000E-02 alpha_mix =  0.700 |ddv_scf|^2 =  8.080E-08

      iter #   2 total cpu time :     2.4 secs   av.it.:   9.2
      thresh= 2.842E-05 alpha_mix =  0.700 |ddv_scf|^2 =  3.317E-09

      iter #   3 total cpu time :     2.5 secs   av.it.:   9.4
      thresh= 5.759E-06 alpha_mix =  0.700 |ddv_scf|^2 =  3.520E-11

      iter #   4 total cpu time :     2.6 secs   av.it.:   9.2
      thresh= 5.933E-07 alpha_mix =  0.700 |ddv_scf|^2 =  7.920E-14

      iter #   5 total cpu time :     2.8 secs   av.it.:   9.5
      thresh= 2.814E-08 alpha_mix =  0.700 |ddv_scf|^2 =  1.347E-15

      iter #   6 total cpu time :     2.9 secs   av.it.:   9.5
      thresh= 3.670E-09 alpha_mix =  0.700 |ddv_scf|^2 =  5.845E-19

     End of self-consistent calculation

     Convergence has been achieved 

     Number of q in the star =    1
     List of q in the star:
          1   0.000000000   0.000000000   0.000000000

          Dielectric constant in cartesian axis 

          (      24.590174619       0.000000000      -0.000000000 )
          (       0.000000000      24.590174619      -0.000000000 )
          (      -0.000000000       0.000000000      24.590174619 )

          Effective charges (d Force / dE) in cartesian axis without acoustic sum rule applied (asr)

           atom    1  Si    Mean Z*:       -1.22722
      Ex  (       -1.22722       -0.00000        0.00000 )
      Ey  (       -0.00000       -1.22722        0.00000 )
      Ez  (       -0.00000        0.00000       -1.22722 )
           atom    2  Si    Mean Z*:       -1.22722
      Ex  (       -1.22722       -0.00000        0.00000 )
      Ey  (       -0.00000       -1.22722        0.00000 )
      Ez  (       -0.00000        0.00000       -1.22722 )

          Effective charges Sum: Mean:       -2.45444
             -2.45444       -0.00000       -0.00000
             -0.00000       -2.45444        0.00000
              0.00000        0.00000       -2.45444

          Effective charges (d Force / dE) in cartesian axis with asr applied: 
           atom    1  Si    Mean Z*:       -0.00000
      E*x (       -0.00000       -0.00000        0.00000 )
      E*y (       -0.00000       -0.00000        0.00000 )
      E*z (       -0.00000        0.00000       -0.00000 )
           atom    2  Si    Mean Z*:        0.00000
      E*x (        0.00000        0.00000        0.00000 )
      E*y (        0.00000        0.00000       -0.00000 )
      E*z (        0.00000       -0.00000        0.00000 )

          Effective charges (d P / du) in cartesian axis 

           atom      1Si    
      Px  (       -1.22722        0.00000        0.00000 )
      Py  (        0.00000       -1.22722        0.00000 )
      Pz  (        0.00000        0.00000       -1.22722 )
           atom      2Si    
      Px  (       -1.22722        0.00000        0.00000 )
      Py  (        0.00000       -1.22722        0.00000 )
      Pz  (        0.00000        0.00000       -1.22722 )

     Diagonalizing the dynamical matrix

     q = (    0.000000000   0.000000000   0.000000000 ) 

 **************************************************************************
     freq (    1) =       0.127266 [THz] =       4.245148 [cm-1]
     freq (    2) =       0.127266 [THz] =       4.245148 [cm-1]
     freq (    3) =       0.127266 [THz] =       4.245148 [cm-1]
     freq (    4) =      15.524743 [THz] =     517.849676 [cm-1]
     freq (    5) =      15.524743 [THz] =     517.849676 [cm-1]
     freq (    6) =      15.524743 [THz] =     517.849676 [cm-1]
 **************************************************************************

     Mode symmetry, O_h (m-3m)  point group:

     freq (   1-   3) =          4.2  [cm-1]   --> T_1u G_15  G_4- I  
     freq (   4-   6) =        517.8  [cm-1]   --> T_2g G_25' G_5+ R  

     Number of q in the star =    1
     List of q in the star:
          1   0.000000000   0.000000000   0.000000000
       Writing drho for q = (  0.000000  0.000000  0.000000) on file "drho.0_0_0"

     Calculation of q =   -0.2500000   0.2500000  -0.2500000

     G-vector sticks info
     --------------------
     sticks:   dense  smooth     PW     G-vecs:    dense   smooth      PW
     Sum         349     349    121                 4279     4279     893

     Using Slab Decomposition


     Title: 
     Ph                                                                         


     bravais-lattice index     =            2
     lattice parameter (alat)  =      10.2000  a.u.
     unit-cell volume          =     265.3020 (a.u.)^3
     number of atoms/cell      =            2
     number of atomic types    =            1
     number of electrons       =         8.00
     number of Kohn-Sham states=            4
     kinetic-energy cutoff     =      24.0000  Ry
     charge density cutoff     =      96.0000  Ry
     Exchange-correlation= PZ
                           (   1   1   0   0   0   0   0)

     celldm(1)=  10.200000  celldm(2)=   0.000000  celldm(3)=   0.000000
     celldm(4)=   0.000000  celldm(5)=   0.000000  celldm(6)=   0.000000

     crystal axes: (cart. coord. in units of alat)
               a(1) = (  -0.500000   0.000000   0.500000 )  
               a(2) = (   0.000000   0.500000   0.500000 )  
               a(3) = (  -0.500000   0.500000   0.000000 )  

     reciprocal axes: (cart. coord. in units 2 pi/alat)
               b(1) = ( -1.000000 -1.000000  1.000000 )  
               b(2) = (  1.000000  1.000000  1.000000 )  
               b(3) = ( -1.000000  1.000000 -1.000000 )  


     PseudoPot. # 1 for Si read from file:
     ./UPF/Si.pz-rrkj.UPF
     MD5 check sum: 884b380b739b48e9cd334294cddc9a8d
     Pseudo is Norm-conserving, Zval =  4.0
     Generated using "atomic" code by A. Dal Corso (espresso distribution)
     Using radial grid of 1141 points,  2 beta functions with: 
                l(1) =   0
                l(2) =   1

     atomic species   valence    mass     pseudopotential
     Si                4.00    28.08600     Si( 1.00)

     48 Sym. Ops., with inversion, found



   Cartesian axes

     site n.     atom                  positions (alat units)
         1        Si     tau(   1) = (   0.0000000   0.0000000   0.0000000  )
         2        Si     tau(   2) = (   0.2500000   0.2500000   0.2500000  )

     number of k points=    40
                       cart. coord. in units 2pi/alat
        k(    1) = (   0.0000000   0.0000000   0.0000000), wk =   0.0312500
        k(    2) = (  -0.2500000   0.2500000  -0.2500000), wk =   0.0000000
        k(    3) = (  -0.2500000   0.2500000  -0.2500000), wk =   0.0312500
        k(    4) = (  -0.5000000   0.5000000  -0.5000000), wk =   0.0000000
        k(    5) = (   0.5000000  -0.5000000   0.5000000), wk =   0.0312500
        k(    6) = (   0.2500000  -0.2500000   0.2500000), wk =   0.0000000
        k(    7) = (   0.0000000   0.5000000   0.0000000), wk =   0.0937500
        k(    8) = (  -0.2500000   0.7500000  -0.2500000), wk =   0.0000000
        k(    9) = (   0.7500000  -0.2500000   0.7500000), wk =   0.0937500
        k(   10) = (   0.5000000   0.0000000   0.5000000), wk =   0.0000000
        k(   11) = (   0.5000000   0.0000000   0.5000000), wk =   0.0937500
        k(   12) = (   0.2500000   0.2500000   0.2500000), wk =   0.0000000
        k(   13) = (   0.0000000  -1.0000000   0.0000000), wk =   0.0937500
        k(   14) = (  -0.2500000  -0.7500000  -0.2500000), wk =   0.0000000
        k(   15) = (  -0.5000000  -1.0000000   0.0000000), wk =   0.1875000
        k(   16) = (  -0.7500000  -0.7500000  -0.2500000), wk =   0.0000000
        k(   17) = (   0.2500000  -0.2500000  -0.2500000), wk =   0.0937500
        k(   18) = (   0.0000000   0.0000000  -0.5000000), wk =   0.0000000
        k(   19) = (   0.2500000  -0.2500000   0.2500000), wk =   0.0312500
        k(   20) = (   0.0000000   0.0000000   0.0000000), wk =   0.0000000
        k(   21) = (  -0.2500000  -0.2500000  -0.2500000), wk =   0.0937500
        k(   22) = (  -0.5000000   0.0000000  -0.5000000), wk =   0.0000000
        k(   23) = (  -0.5000000   0.5000000   0.5000000), wk =   0.0937500
        k(   24) = (  -0.7500000   0.7500000   0.2500000), wk =   0.0000000
        k(   25) = (   0.0000000   0.0000000   0.5000000), wk =   0.0937500
        k(   26) = (  -0.2500000   0.2500000   0.2500000), wk =   0.0000000
        k(   27) = (  -0.7500000   0.7500000   0.2500000), wk =   0.0937500
        k(   28) = (  -1.0000000   1.0000000   0.0000000), wk =   0.0000000
        k(   29) = (  -0.7500000   0.7500000  -0.2500000), wk =   0.0937500
        k(   30) = (  -1.0000000   1.0000000  -0.5000000), wk =   0.0000000
        k(   31) = (  -0.7500000   0.2500000   0.7500000), wk =   0.1875000
        k(   32) = (  -1.0000000   0.5000000   0.5000000), wk =   0.0000000
        k(   33) = (   0.7500000   0.2500000   0.7500000), wk =   0.0937500
        k(   34) = (   0.5000000   0.5000000   0.5000000), wk =   0.0000000
        k(   35) = (   0.7500000  -0.2500000  -0.7500000), wk =   0.1875000
        k(   36) = (   0.5000000   0.0000000  -1.0000000), wk =   0.0000000
        k(   37) = (  -0.5000000   0.5000000   0.0000000), wk =   0.0937500
        k(   38) = (  -0.7500000   0.7500000  -0.2500000), wk =   0.0000000
        k(   39) = (  -0.5000000   0.0000000   0.5000000), wk =   0.1875000
        k(   40) = (  -0.7500000   0.2500000   0.2500000), wk =   0.0000000

     Dense  grid:     4279 G-vectors     FFT dimensions: (  24,  24,  24)

     Estimated max dynamical RAM per process >       1.95 MB

     The potential is recalculated from file :
     ./tmp/_ph0/silicon.save/charge-density

     Starting wfcs are    8 atomic wfcs

     Band Structure Calculation
     Davidson diagonalization with overlap

     ethr =  1.25E-10,  avg # of iterations =  9.8

     total cpu time spent up to now is        0.3 secs

     End of band structure calculation

          k = 0.0000 0.0000 0.0000 (   531 PWs)   bands (ev):

    -5.8298   6.2602   6.2602   6.2602

          k =-0.2500 0.2500-0.2500 (   531 PWs)   bands (ev):

    -5.0163   2.2803   5.4898   5.4898

          k =-0.2500 0.2500-0.2500 (   531 PWs)   bands (ev):

    -5.0163   2.2803   5.4898   5.4898

          k =-0.5000 0.5000-0.5000 (   544 PWs)   bands (ev):

    -3.4435  -0.8222   5.0488   5.0488

          k = 0.5000-0.5000 0.5000 (   544 PWs)   bands (ev):

    -3.4435  -0.8222   5.0488   5.0488

          k = 0.2500-0.2500 0.2500 (   531 PWs)   bands (ev):

    -5.0163   2.2803   5.4898   5.4898

          k = 0.0000 0.5000 0.0000 (   528 PWs)   bands (ev):

    -4.7302   2.7329   4.3342   4.3342

          k =-0.2500 0.7500-0.2500 (   529 PWs)   bands (ev):

    -3.0601  -0.1827   2.6418   4.0173

          k = 0.7500-0.2500 0.7500 (   529 PWs)   bands (ev):

    -3.0601  -0.1827   2.6418   4.0173

          k = 0.5000 0.0000 0.5000 (   524 PWs)   bands (ev):

    -3.7482   0.7368   2.4091   4.9135

          k = 0.5000 0.0000 0.5000 (   524 PWs)   bands (ev):

    -3.7482   0.7368   2.4091   4.9135

          k = 0.2500 0.2500 0.2500 (   531 PWs)   bands (ev):

    -5.0163   2.2803   5.4898   5.4898

          k = 0.0000-1.0000 0.0000 (   524 PWs)   bands (ev):

    -1.6182  -1.6182   3.3581   3.3581

          k =-0.2500-0.7500-0.2500 (   529 PWs)   bands (ev):

    -3.0601  -0.1827   2.6418   4.0173

          k =-0.5000-1.0000 0.0000 (   516 PWs)   bands (ev):

    -1.4420  -1.4420   2.3021   2.3021

          k =-0.7500-0.7500-0.2500 (   529 PWs)   bands (ev):

    -3.0601  -0.1827   2.6418   4.0173

          k = 0.2500-0.2500-0.2500 (   531 PWs)   bands (ev):

    -5.0163   2.2803   5.4898   5.4898

          k = 0.0000 0.0000-0.5000 (   528 PWs)   bands (ev):

    -4.7302   2.7329   4.3342   4.3342

          k = 0.2500-0.2500 0.2500 (   531 PWs)   bands (ev):

    -5.0163   2.2803   5.4898   5.4898

          k = 0.0000 0.0000 0.0000 (   531 PWs)   bands (ev):

    -5.8298   6.2602   6.2602   6.2602

          k =-0.2500-0.2500-0.2500 (   531 PWs)   bands (ev):

    -5.0163   2.2803   5.4898   5.4898

          k =-0.5000 0.0000-0.5000 (   524 PWs)   bands (ev):

    -3.7482   0.7368   2.4091   4.9135

          k =-0.5000 0.5000 0.5000 (   544 PWs)   bands (ev):

    -3.4435  -0.8222   5.0488   5.0488

          k =-0.7500 0.7500 0.2500 (   529 PWs)   bands (ev):

    -3.0601  -0.1827   2.6418   4.0173

          k = 0.0000 0.0000 0.5000 (   528 PWs)   bands (ev):

    -4.7302   2.7329   4.3342   4.3342

          k =-0.2500 0.2500 0.2500 (   531 PWs)   bands (ev):

    -5.0163   2.2803   5.4898   5.4898

          k =-0.7500 0.7500 0.2500 (   529 PWs)   bands (ev):

    -3.0601  -0.1827   2.6418   4.0173

          k =-1.0000 1.0000 0.0000 (   524 PWs)   bands (ev):

    -1.6182  -1.6182   3.3581   3.3581

          k =-0.7500 0.7500-0.2500 (   529 PWs)   bands (ev):

    -3.0601  -0.1827   2.6418   4.0173

          k =-1.0000 1.0000-0.5000 (   528 PWs)   bands (ev):

    -4.7302   2.7329   4.3342   4.3342

          k =-0.7500 0.2500 0.7500 (   529 PWs)   bands (ev):

    -3.0601  -0.1827   2.6418   4.0173

          k =-1.0000 0.5000 0.5000 (   524 PWs)   bands (ev):

    -3.7482   0.7368   2.4091   4.9135

          k = 0.7500 0.2500 0.7500 (   529 PWs)   bands (ev):

    -3.0601  -0.1827   2.6418   4.0173

          k = 0.5000 0.5000 0.5000 (   544 PWs)   bands (ev):

    -3.4435  -0.8222   5.0488   5.0488

          k = 0.7500-0.2500-0.7500 (   529 PWs)   bands (ev):

    -3.0601  -0.1827   2.6418   4.0173

          k = 0.5000 0.0000-1.0000 (   516 PWs)   bands (ev):

    -1.4420  -1.4420   2.3021   2.3021

          k =-0.5000 0.5000 0.0000 (   524 PWs)   bands (ev):

    -3.7482   0.7368   2.4091   4.9135

          k =-0.7500 0.7500-0.2500 (   529 PWs)   bands (ev):

    -3.0601  -0.1827   2.6418   4.0173

          k =-0.5000 0.0000 0.5000 (   524 PWs)   bands (ev):

    -3.7482   0.7368   2.4091   4.9135

          k =-0.7500 0.2500 0.2500 (   529 PWs)   bands (ev):

    -3.0601  -0.1827   2.6418   4.0173

     highest occupied level (ev):     6.2602

     Writing config to output data dir ./tmp/_ph0/silicon.save/ :
     XML data file

     Ph                                                                         

     bravais-lattice index     =            2
     lattice parameter (alat)  =      10.2000  a.u.
     unit-cell volume          =     265.3020 (a.u.)^3
     number of atoms/cell      =            2
     number of atomic types    =            1
     kinetic-energy cut-off    =      24.0000  Ry
     charge density cut-off    =      96.0000  Ry
     convergence threshold     =      1.0E-16
     beta                      =       0.7000
     number of iterations used =            4
     Exchange-correlation= PZ
                           (   1   1   0   0   0   0   0)


     celldm(1)=   10.20000  celldm(2)=    0.00000  celldm(3)=    0.00000
     celldm(4)=    0.00000  celldm(5)=    0.00000  celldm(6)=    0.00000

     crystal axes: (cart. coord. in units of alat)
               a(1) = ( -0.5000  0.0000  0.5000 )  
               a(2) = (  0.0000  0.5000  0.5000 )  
               a(3) = ( -0.5000  0.5000  0.0000 )  

     reciprocal axes: (cart. coord. in units 2 pi/alat)
               b(1) = ( -1.0000 -1.0000  1.0000 )  
               b(2) = (  1.0000  1.0000  1.0000 )  
               b(3) = ( -1.0000  1.0000 -1.0000 )  


     Atoms inside the unit cell: 

     Cartesian axes

     site n.  atom      mass           positions (alat units)
        1  Si     28.0860   tau(    1) = (    0.00000    0.00000    0.00000  )
        2  Si     28.0860   tau(    2) = (    0.25000    0.25000    0.25000  )

     Computing dynamical matrix for 
                    q = (  -0.2500000   0.2500000  -0.2500000 )

      6 Sym.Ops. (no q -> -q+G )


     G cutoff =  252.9949  (   4279 G-vectors)     FFT grid: ( 24, 24, 24)
     number of k points=    40

     PseudoPot. # 1 for Si read from file:
     ./UPF/Si.pz-rrkj.UPF
     MD5 check sum: 884b380b739b48e9cd334294cddc9a8d
     Pseudo is Norm-conserving, Zval =  4.0
     Generated using "atomic" code by A. Dal Corso (espresso distribution)
     Using radial grid of 1141 points,  2 beta functions with: 
                l(1) =   0
                l(2) =   1

     Mode symmetry, C_3v (3m)   point group:


     Atomic displacements:
     There are    4 irreducible representations

     Representation     1      1 modes -  To be done

     Representation     2      1 modes -  To be done

     Representation     3      2 modes -  To be done

     Representation     4      2 modes -  To be done


     Message from routine init_vloc:
     Interpolation table for Vloc re-allocated

     Alpha used in Ewald sum =   1.0000
     PHONON       :      3.09s CPU      3.21s WALL



     Representation #   1 mode #   1

     Self-consistent Calculation

      iter #   1 total cpu time :     3.3 secs   av.it.:   5.9
      thresh= 1.000E-02 alpha_mix =  0.700 |ddv_scf|^2 =  1.456E-03

      iter #   2 total cpu time :     3.4 secs   av.it.:   7.8
      thresh= 3.815E-03 alpha_mix =  0.700 |ddv_scf|^2 =  2.086E-02

      iter #   3 total cpu time :     3.5 secs   av.it.:   6.5
      thresh= 1.000E-02 alpha_mix =  0.700 |ddv_scf|^2 =  1.058E-06

      iter #   4 total cpu time :     3.6 secs   av.it.:   8.1
      thresh= 1.029E-04 alpha_mix =  0.700 |ddv_scf|^2 =  9.394E-08

      iter #   5 total cpu time :     3.7 secs   av.it.:   7.7
      thresh= 3.065E-05 alpha_mix =  0.700 |ddv_scf|^2 =  7.652E-10

      iter #   6 total cpu time :     3.7 secs   av.it.:   7.6
      thresh= 2.766E-06 alpha_mix =  0.700 |ddv_scf|^2 =  1.131E-09

      iter #   7 total cpu time :     3.8 secs   av.it.:   6.6
      thresh= 3.363E-06 alpha_mix =  0.700 |ddv_scf|^2 =  2.136E-11

      iter #   8 total cpu time :     3.9 secs   av.it.:   7.8
      thresh= 4.622E-07 alpha_mix =  0.700 |ddv_scf|^2 =  4.438E-13

      iter #   9 total cpu time :     4.0 secs   av.it.:   7.3
      thresh= 6.662E-08 alpha_mix =  0.700 |ddv_scf|^2 =  5.581E-15

      iter #  10 total cpu time :     4.1 secs   av.it.:   8.2
      thresh= 7.470E-09 alpha_mix =  0.700 |ddv_scf|^2 =  6.448E-15

      iter #  11 total cpu time :     4.2 secs   av.it.:   7.4
      thresh= 8.030E-09 alpha_mix =  0.700 |ddv_scf|^2 =  5.527E-17

     End of self-consistent calculation

     Convergence has been achieved 


     Representation #   2 mode #   2

     Self-consistent Calculation

      iter #   1 total cpu time :     4.2 secs   av.it.:   5.9
      thresh= 1.000E-02 alpha_mix =  0.700 |ddv_scf|^2 =  1.456E-03

      iter #   2 total cpu time :     4.3 secs   av.it.:   7.8
      thresh= 3.815E-03 alpha_mix =  0.700 |ddv_scf|^2 =  2.086E-02

      iter #   3 total cpu time :     4.4 secs   av.it.:   6.5
      thresh= 1.000E-02 alpha_mix =  0.700 |ddv_scf|^2 =  1.058E-06

      iter #   4 total cpu time :     4.5 secs   av.it.:   8.1
      thresh= 1.029E-04 alpha_mix =  0.700 |ddv_scf|^2 =  9.305E-08

      iter #   5 total cpu time :     4.6 secs   av.it.:   7.7
      thresh= 3.050E-05 alpha_mix =  0.700 |ddv_scf|^2 =  5.486E-10

      iter #   6 total cpu time :     4.7 secs   av.it.:   7.7
      thresh= 2.342E-06 alpha_mix =  0.700 |ddv_scf|^2 =  5.462E-10

      iter #   7 total cpu time :     4.8 secs   av.it.:   6.7
      thresh= 2.337E-06 alpha_mix =  0.700 |ddv_scf|^2 =  4.547E-11

      iter #   8 total cpu time :     4.9 secs   av.it.:   7.5
      thresh= 6.743E-07 alpha_mix =  0.700 |ddv_scf|^2 =  4.554E-13

      iter #   9 total cpu time :     5.0 secs   av.it.:   7.3
      thresh= 6.748E-08 alpha_mix =  0.700 |ddv_scf|^2 =  5.586E-15

      iter #  10 total cpu time :     5.0 secs   av.it.:   8.2
      thresh= 7.474E-09 alpha_mix =  0.700 |ddv_scf|^2 =  6.012E-15

      iter #  11 total cpu time :     5.1 secs   av.it.:   7.3
      thresh= 7.754E-09 alpha_mix =  0.700 |ddv_scf|^2 =  6.278E-17

     End of self-consistent calculation

     Convergence has been achieved 


     Representation #   3 modes #   3   4

     Self-consistent Calculation

      iter #   1 total cpu time :     5.3 secs   av.it.:   5.3
      thresh= 1.000E-02 alpha_mix =  0.700 |ddv_scf|^2 =  3.066E-07

      iter #   2 total cpu time :     5.5 secs   av.it.:   9.6
      thresh= 5.537E-05 alpha_mix =  0.700 |ddv_scf|^2 =  1.833E-08

      iter #   3 total cpu time :     5.7 secs   av.it.:   9.4
      thresh= 1.354E-05 alpha_mix =  0.700 |ddv_scf|^2 =  1.004E-10

      iter #   4 total cpu time :     5.9 secs   av.it.:   9.3
      thresh= 1.002E-06 alpha_mix =  0.700 |ddv_scf|^2 =  6.101E-12

      iter #   5 total cpu time :     6.1 secs   av.it.:   9.2
      thresh= 2.470E-07 alpha_mix =  0.700 |ddv_scf|^2 =  1.105E-14

      iter #   6 total cpu time :     6.3 secs   av.it.:   9.6
      thresh= 1.051E-08 alpha_mix =  0.700 |ddv_scf|^2 =  1.833E-16

      iter #   7 total cpu time :     6.5 secs   av.it.:   9.8
      thresh= 1.354E-09 alpha_mix =  0.700 |ddv_scf|^2 =  1.065E-18

     End of self-consistent calculation

     Convergence has been achieved 


     Representation #   4 modes #   5   6

     Self-consistent Calculation

      iter #   1 total cpu time :     6.7 secs   av.it.:   5.3
      thresh= 1.000E-02 alpha_mix =  0.700 |ddv_scf|^2 =  3.064E-07

      iter #   2 total cpu time :     6.9 secs   av.it.:   9.5
      thresh= 5.536E-05 alpha_mix =  0.700 |ddv_scf|^2 =  1.827E-08

      iter #   3 total cpu time :     7.1 secs   av.it.:   9.3
      thresh= 1.352E-05 alpha_mix =  0.700 |ddv_scf|^2 =  1.004E-10

      iter #   4 total cpu time :     7.3 secs   av.it.:   9.2
      thresh= 1.002E-06 alpha_mix =  0.700 |ddv_scf|^2 =  6.093E-12

      iter #   5 total cpu time :     7.5 secs   av.it.:   9.2
      thresh= 2.468E-07 alpha_mix =  0.700 |ddv_scf|^2 =  1.097E-14

      iter #   6 total cpu time :     7.7 secs   av.it.:   9.6
      thresh= 1.047E-08 alpha_mix =  0.700 |ddv_scf|^2 =  1.830E-16

      iter #   7 total cpu time :     7.9 secs   av.it.:   9.7
      thresh= 1.353E-09 alpha_mix =  0.700 |ddv_scf|^2 =  1.011E-18

     End of self-consistent calculation

     Convergence has been achieved 

     Number of q in the star =    8
     List of q in the star:
          1  -0.250000000   0.250000000  -0.250000000
          2   0.250000000  -0.250000000  -0.250000000
          3   0.250000000  -0.250000000   0.250000000
          4   0.250000000   0.250000000   0.250000000
          5  -0.250000000  -0.250000000  -0.250000000
          6  -0.250000000  -0.250000000   0.250000000
          7  -0.250000000   0.250000000   0.250000000
          8   0.250000000   0.250000000  -0.250000000

     Diagonalizing the dynamical matrix

     q = (   -0.250000000   0.250000000  -0.250000000 ) 

 **************************************************************************
     freq (    1) =       2.780935 [THz] =      92.762002 [cm-1]
     freq (    2) =       2.780935 [THz] =      92.762002 [cm-1]
     freq (    3) =       6.848889 [THz] =     228.454358 [cm-1]
     freq (    4) =      14.655973 [THz] =     488.870624 [cm-1]
     freq (    5) =      14.865618 [THz] =     495.863645 [cm-1]
     freq (    6) =      14.865618 [THz] =     495.863645 [cm-1]
 **************************************************************************

     Mode symmetry, C_3v (3m)   point group:

     freq (   1-   2) =         92.8  [cm-1]   --> E    L_3           
     freq (   3-   3) =        228.5  [cm-1]   --> A_1  L_1           
     freq (   4-   4) =        488.9  [cm-1]   --> A_1  L_1           
     freq (   5-   6) =        495.9  [cm-1]   --> E    L_3           

     Number of q in the star =    8
     List of q in the star:
          1  -0.250000000   0.250000000  -0.250000000
          2   0.250000000  -0.250000000  -0.250000000
          3   0.250000000  -0.250000000   0.250000000
          4   0.250000000   0.250000000   0.250000000
          5  -0.250000000  -0.250000000  -0.250000000
          6  -0.250000000  -0.250000000   0.250000000
          7  -0.250000000   0.250000000   0.250000000
          8   0.250000000   0.250000000  -0.250000000
       Writing drho for q = ( -0.250000  0.250000 -0.250000) on file "drho.0_0_1o4"
       Writing drho for q = (  0.250000 -0.250000 -0.250000) on file "drho.-1o4_-1o4_-1o4"
       Writing drho for q = (  0.250000 -0.250000  0.250000) on file "drho.0_0_-1o4"
       Writing drho for q = (  0.250000  0.250000  0.250000) on file "drho.0_1o4_0"
       Writing drho for q = ( -0.250000 -0.250000 -0.250000) on file "drho.0_-1o4_0"
       Writing drho for q = ( -0.250000 -0.250000  0.250000) on file "drho.1o4_0_0"
       Writing drho for q = ( -0.250000  0.250000  0.250000) on file "drho.1o4_1o4_1o4"
       Writing drho for q = (  0.250000  0.250000 -0.250000) on file "drho.-1o4_0_0"

     Calculation of q =    0.5000000  -0.5000000   0.5000000

     G-vector sticks info
     --------------------
     sticks:   dense  smooth     PW     G-vecs:    dense   smooth      PW
     Sum         349     349    127                 4279     4279     965

     Using Slab Decomposition


     Title: 
     Ph                                                                         


     bravais-lattice index     =            2
     lattice parameter (alat)  =      10.2000  a.u.
     unit-cell volume          =     265.3020 (a.u.)^3
     number of atoms/cell      =            2
     number of atomic types    =            1
     number of electrons       =         8.00
     number of Kohn-Sham states=            4
     kinetic-energy cutoff     =      24.0000  Ry
     charge density cutoff     =      96.0000  Ry
     Exchange-correlation= PZ
                           (   1   1   0   0   0   0   0)

     celldm(1)=  10.200000  celldm(2)=   0.000000  celldm(3)=   0.000000
     celldm(4)=   0.000000  celldm(5)=   0.000000  celldm(6)=   0.000000

     crystal axes: (cart. coord. in units of alat)
               a(1) = (  -0.500000   0.000000   0.500000 )  
               a(2) = (   0.000000   0.500000   0.500000 )  
               a(3) = (  -0.500000   0.500000   0.000000 )  

     reciprocal axes: (cart. coord. in units 2 pi/alat)
               b(1) = ( -1.000000 -1.000000  1.000000 )  
               b(2) = (  1.000000  1.000000  1.000000 )  
               b(3) = ( -1.000000  1.000000 -1.000000 )  


     PseudoPot. # 1 for Si read from file:
     ./UPF/Si.pz-rrkj.UPF
     MD5 check sum: 884b380b739b48e9cd334294cddc9a8d
     Pseudo is Norm-conserving, Zval =  4.0
     Generated using "atomic" code by A. Dal Corso (espresso distribution)
     Using radial grid of 1141 points,  2 beta functions with: 
                l(1) =   0
                l(2) =   1

     atomic species   valence    mass     pseudopotential
     Si                4.00    28.08600     Si( 1.00)

     48 Sym. Ops., with inversion, found



   Cartesian axes

     site n.     atom                  positions (alat units)
         1        Si     tau(   1) = (   0.0000000   0.0000000   0.0000000  )
         2        Si     tau(   2) = (   0.2500000   0.2500000   0.2500000  )

     number of k points=    26
                       cart. coord. in units 2pi/alat
        k(    1) = (   0.0000000   0.0000000   0.0000000), wk =   0.0312500
        k(    2) = (   0.5000000  -0.5000000   0.5000000), wk =   0.0000000
        k(    3) = (  -0.2500000   0.2500000  -0.2500000), wk =   0.0625000
        k(    4) = (   0.2500000  -0.2500000   0.2500000), wk =   0.0000000
        k(    5) = (   0.5000000  -0.5000000   0.5000000), wk =   0.0312500
        k(    6) = (   1.0000000  -1.0000000   1.0000000), wk =   0.0000000
        k(    7) = (   0.0000000   0.5000000   0.0000000), wk =   0.1875000
        k(    8) = (   0.5000000   0.0000000   0.5000000), wk =   0.0000000
        k(    9) = (   0.7500000  -0.2500000   0.7500000), wk =   0.1875000
        k(   10) = (   1.2500000  -0.7500000   1.2500000), wk =   0.0000000
        k(   11) = (   0.5000000   0.0000000   0.5000000), wk =   0.1875000
        k(   12) = (   1.0000000  -0.5000000   1.0000000), wk =   0.0000000
        k(   13) = (   0.0000000  -1.0000000   0.0000000), wk =   0.0937500
        k(   14) = (   0.5000000  -1.5000000   0.5000000), wk =   0.0000000
        k(   15) = (  -0.5000000  -1.0000000   0.0000000), wk =   0.1875000
        k(   16) = (   0.0000000  -1.5000000   0.5000000), wk =   0.0000000
        k(   17) = (  -0.2500000  -0.2500000  -0.2500000), wk =   0.1875000
        k(   18) = (   0.2500000  -0.7500000   0.2500000), wk =   0.0000000
        k(   19) = (   0.5000000   0.5000000   0.5000000), wk =   0.0937500
        k(   20) = (   1.0000000   0.0000000   1.0000000), wk =   0.0000000
        k(   21) = (   0.7500000   0.2500000   0.7500000), wk =   0.1875000
        k(   22) = (   1.2500000  -0.2500000   1.2500000), wk =   0.0000000
        k(   23) = (  -0.7500000   0.2500000   0.7500000), wk =   0.3750000
        k(   24) = (  -0.2500000  -0.2500000   1.2500000), wk =   0.0000000
        k(   25) = (  -0.5000000   0.0000000   0.5000000), wk =   0.1875000
        k(   26) = (   0.0000000  -0.5000000   1.0000000), wk =   0.0000000

     Dense  grid:     4279 G-vectors     FFT dimensions: (  24,  24,  24)

     Estimated max dynamical RAM per process >       1.95 MB

     The potential is recalculated from file :
     ./tmp/_ph0/silicon.save/charge-density

     Starting wfcs are    8 atomic wfcs

     Band Structure Calculation
     Davidson diagonalization with overlap

     ethr =  1.25E-10,  avg # of iterations =  9.5

     total cpu time spent up to now is        0.4 secs

     End of band structure calculation

          k = 0.0000 0.0000 0.0000 (   531 PWs)   bands (ev):

    -5.8298   6.2602   6.2602   6.2602

          k = 0.5000-0.5000 0.5000 (   544 PWs)   bands (ev):

    -3.4435  -0.8222   5.0488   5.0488

          k =-0.2500 0.2500-0.2500 (   531 PWs)   bands (ev):

    -5.0163   2.2803   5.4898   5.4898

          k = 0.2500-0.2500 0.2500 (   531 PWs)   bands (ev):

    -5.0163   2.2803   5.4898   5.4898

          k = 0.5000-0.5000 0.5000 (   544 PWs)   bands (ev):

    -3.4435  -0.8222   5.0488   5.0488

          k = 1.0000-1.0000 1.0000 (   531 PWs)   bands (ev):

    -5.8298   6.2602   6.2602   6.2602

          k = 0.0000 0.5000 0.0000 (   528 PWs)   bands (ev):

    -4.7302   2.7329   4.3342   4.3342

          k = 0.5000 0.0000 0.5000 (   524 PWs)   bands (ev):

    -3.7482   0.7368   2.4091   4.9135

          k = 0.7500-0.2500 0.7500 (   529 PWs)   bands (ev):

    -3.0601  -0.1827   2.6418   4.0173

          k = 1.2500-0.7500 1.2500 (   531 PWs)   bands (ev):

    -5.0163   2.2803   5.4898   5.4898

          k = 0.5000 0.0000 0.5000 (   524 PWs)   bands (ev):

    -3.7482   0.7368   2.4091   4.9135

          k = 1.0000-0.5000 1.0000 (   528 PWs)   bands (ev):

    -4.7302   2.7329   4.3342   4.3342

          k = 0.0000-1.0000 0.0000 (   524 PWs)   bands (ev):

    -1.6182  -1.6182   3.3581   3.3581

          k = 0.5000-1.5000 0.5000 (   544 PWs)   bands (ev):

    -3.4435  -0.8222   5.0488   5.0488

          k =-0.5000-1.0000 0.0000 (   516 PWs)   bands (ev):

    -1.4420  -1.4420   2.3021   2.3021

          k = 0.0000-1.5000 0.5000 (   524 PWs)   bands (ev):

    -3.7482   0.7368   2.4091   4.9135

          k =-0.2500-0.2500-0.2500 (   531 PWs)   bands (ev):

    -5.0163   2.2803   5.4898   5.4898

          k = 0.2500-0.7500 0.2500 (   529 PWs)   bands (ev):

    -3.0601  -0.1827   2.6418   4.0173

          k = 0.5000 0.5000 0.5000 (   544 PWs)   bands (ev):

    -3.4435  -0.8222   5.0488   5.0488

          k = 1.0000 0.0000 1.0000 (   524 PWs)   bands (ev):

    -1.6182  -1.6182   3.3581   3.3581

          k = 0.7500 0.2500 0.7500 (   529 PWs)   bands (ev):

    -3.0601  -0.1827   2.6418   4.0173

          k = 1.2500-0.2500 1.2500 (   529 PWs)   bands (ev):

    -3.0601  -0.1827   2.6418   4.0173

          k =-0.7500 0.2500 0.7500 (   529 PWs)   bands (ev):

    -3.0601  -0.1827   2.6418   4.0173

          k =-0.2500-0.2500 1.2500 (   529 PWs)   bands (ev):

    -3.0601  -0.1827   2.6418   4.0173

          k =-0.5000 0.0000 0.5000 (   524 PWs)   bands (ev):

    -3.7482   0.7368   2.4091   4.9135

          k = 0.0000-0.5000 1.0000 (   516 PWs)   bands (ev):

    -1.4420  -1.4420   2.3021   2.3021

     highest occupied level (ev):     6.2602

     Writing config to output data dir ./tmp/_ph0/silicon.save/ :
     XML data file

     Ph                                                                         

     bravais-lattice index     =            2
     lattice parameter (alat)  =      10.2000  a.u.
     unit-cell volume          =     265.3020 (a.u.)^3
     number of atoms/cell      =            2
     number of atomic types    =            1
     kinetic-energy cut-off    =      24.0000  Ry
     charge density cut-off    =      96.0000  Ry
     convergence threshold     =      1.0E-16
     beta                      =       0.7000
     number of iterations used =            4
     Exchange-correlation= PZ
                           (   1   1   0   0   0   0   0)


     celldm(1)=   10.20000  celldm(2)=    0.00000  celldm(3)=    0.00000
     celldm(4)=    0.00000  celldm(5)=    0.00000  celldm(6)=    0.00000

     crystal axes: (cart. coord. in units of alat)
               a(1) = ( -0.5000  0.0000  0.5000 )  
               a(2) = (  0.0000  0.5000  0.5000 )  
               a(3) = ( -0.5000  0.5000  0.0000 )  

     reciprocal axes: (cart. coord. in units 2 pi/alat)
               b(1) = ( -1.0000 -1.0000  1.0000 )  
               b(2) = (  1.0000  1.0000  1.0000 )  
               b(3) = ( -1.0000  1.0000 -1.0000 )  


     Atoms inside the unit cell: 

     Cartesian axes

     site n.  atom      mass           positions (alat units)
        1  Si     28.0860   tau(    1) = (    0.00000    0.00000    0.00000  )
        2  Si     28.0860   tau(    2) = (    0.25000    0.25000    0.25000  )

     Computing dynamical matrix for 
                    q = (   0.5000000  -0.5000000   0.5000000 )

     13 Sym.Ops. (with q -> -q+G )


     G cutoff =  252.9949  (   4279 G-vectors)     FFT grid: ( 24, 24, 24)
     number of k points=    26

     PseudoPot. # 1 for Si read from file:
     ./UPF/Si.pz-rrkj.UPF
     MD5 check sum: 884b380b739b48e9cd334294cddc9a8d
     Pseudo is Norm-conserving, Zval =  4.0
     Generated using "atomic" code by A. Dal Corso (espresso distribution)
     Using radial grid of 1141 points,  2 beta functions with: 
                l(1) =   0
                l(2) =   1


     Atomic displacements:
     There are    4 irreducible representations

     Representation     1      1 modes -  To be done

     Representation     2      1 modes -  To be done

     Representation     3      2 modes -  To be done

     Representation     4      2 modes -  To be done



     Alpha used in Ewald sum =   1.0000
     PHONON       :      7.77s CPU      8.12s WALL



     Representation #   1 mode #   1

     Self-consistent Calculation

      iter #   1 total cpu time :     8.2 secs   av.it.:   4.8
      thresh= 1.000E-02 alpha_mix =  0.700 |ddv_scf|^2 =  1.331E-05

      iter #   2 total cpu time :     8.2 secs   av.it.:   7.7
      thresh= 3.648E-04 alpha_mix =  0.700 |ddv_scf|^2 =  1.060E-05

      iter #   3 total cpu time :     8.3 secs   av.it.:   7.1
      thresh= 3.256E-04 alpha_mix =  0.700 |ddv_scf|^2 =  1.457E-09

      iter #   4 total cpu time :     8.3 secs   av.it.:   7.3
      thresh= 3.816E-06 alpha_mix =  0.700 |ddv_scf|^2 =  2.312E-11

      iter #   5 total cpu time :     8.4 secs   av.it.:   7.2
      thresh= 4.808E-07 alpha_mix =  0.700 |ddv_scf|^2 =  1.541E-13

      iter #   6 total cpu time :     8.5 secs   av.it.:   7.4
      thresh= 3.926E-08 alpha_mix =  0.700 |ddv_scf|^2 =  2.281E-15

      iter #   7 total cpu time :     8.5 secs   av.it.:   7.5
      thresh= 4.776E-09 alpha_mix =  0.700 |ddv_scf|^2 =  6.626E-18

     End of self-consistent calculation

     Convergence has been achieved 


     Representation #   2 mode #   2

     Self-consistent Calculation

      iter #   1 total cpu time :     8.6 secs   av.it.:   5.9
      thresh= 1.000E-02 alpha_mix =  0.700 |ddv_scf|^2 =  2.408E-04

      iter #   2 total cpu time :     8.6 secs   av.it.:   7.9
      thresh= 1.552E-03 alpha_mix =  0.700 |ddv_scf|^2 =  8.230E-04

      iter #   3 total cpu time :     8.7 secs   av.it.:   7.2
      thresh= 2.869E-03 alpha_mix =  0.700 |ddv_scf|^2 =  1.995E-08

      iter #   4 total cpu time :     8.7 secs   av.it.:   8.3
      thresh= 1.412E-05 alpha_mix =  0.700 |ddv_scf|^2 =  6.397E-10

      iter #   5 total cpu time :     8.8 secs   av.it.:   8.2
      thresh= 2.529E-06 alpha_mix =  0.700 |ddv_scf|^2 =  5.110E-11

      iter #   6 total cpu time :     8.9 secs   av.it.:   7.5
      thresh= 7.148E-07 alpha_mix =  0.700 |ddv_scf|^2 =  3.249E-14

      iter #   7 total cpu time :     8.9 secs   av.it.:   7.5
      thresh= 1.802E-08 alpha_mix =  0.700 |ddv_scf|^2 =  3.210E-15

      iter #   8 total cpu time :     9.0 secs   av.it.:   7.7
      thresh= 5.665E-09 alpha_mix =  0.700 |ddv_scf|^2 =  1.535E-16

      iter #   9 total cpu time :     9.1 secs   av.it.:   7.5
      thresh= 1.239E-09 alpha_mix =  0.700 |ddv_scf|^2 =  1.314E-19

     End of self-consistent calculation

     Convergence has been achieved 


     Representation #   3 modes #   3   4

     Self-consistent Calculation

      iter #   1 total cpu time :     9.2 secs   av.it.:   5.0
      thresh= 1.000E-02 alpha_mix =  0.700 |ddv_scf|^2 =  6.958E-07

      iter #   2 total cpu time :     9.3 secs   av.it.:   8.8
      thresh= 8.341E-05 alpha_mix =  0.700 |ddv_scf|^2 =  6.390E-08

      iter #   3 total cpu time :     9.4 secs   av.it.:   8.8
      thresh= 2.528E-05 alpha_mix =  0.700 |ddv_scf|^2 =  9.073E-11

      iter #   4 total cpu time :     9.6 secs   av.it.:   8.3
      thresh= 9.525E-07 alpha_mix =  0.700 |ddv_scf|^2 =  2.747E-13

      iter #   5 total cpu time :     9.7 secs   av.it.:   8.7
      thresh= 5.242E-08 alpha_mix =  0.700 |ddv_scf|^2 =  1.001E-15

      iter #   6 total cpu time :     9.8 secs   av.it.:   8.8
      thresh= 3.163E-09 alpha_mix =  0.700 |ddv_scf|^2 =  2.204E-17

     End of self-consistent calculation

     Convergence has been achieved 


     Representation #   4 modes #   5   6

     Self-consistent Calculation

      iter #   1 total cpu time :     9.9 secs   av.it.:   4.7
      thresh= 1.000E-02 alpha_mix =  0.700 |ddv_scf|^2 =  8.140E-08

      iter #   2 total cpu time :    10.1 secs   av.it.:   9.2
      thresh= 2.853E-05 alpha_mix =  0.700 |ddv_scf|^2 =  1.887E-09

      iter #   3 total cpu time :    10.2 secs   av.it.:   8.9
      thresh= 4.344E-06 alpha_mix =  0.700 |ddv_scf|^2 =  6.409E-11

      iter #   4 total cpu time :    10.3 secs   av.it.:   8.9
      thresh= 8.006E-07 alpha_mix =  0.700 |ddv_scf|^2 =  9.409E-14

      iter #   5 total cpu time :    10.5 secs   av.it.:   9.2
      thresh= 3.067E-08 alpha_mix =  0.700 |ddv_scf|^2 =  1.220E-15

      iter #   6 total cpu time :    10.6 secs   av.it.:   9.3
      thresh= 3.493E-09 alpha_mix =  0.700 |ddv_scf|^2 =  6.599E-18

     End of self-consistent calculation

     Convergence has been achieved 

     Number of q in the star =    4
     List of q in the star:
          1   0.500000000  -0.500000000   0.500000000
          2   0.500000000   0.500000000   0.500000000
          3  -0.500000000   0.500000000   0.500000000
          4   0.500000000   0.500000000  -0.500000000

     Diagonalizing the dynamical matrix

     q = (    0.500000000  -0.500000000   0.500000000 ) 

 **************************************************************************
     freq (    1) =       3.063543 [THz] =     102.188798 [cm-1]
     freq (    2) =       3.063543 [THz] =     102.188798 [cm-1]
     freq (    3) =      11.441565 [THz] =     381.649537 [cm-1]
     freq (    4) =      12.004144 [THz] =     400.415145 [cm-1]
     freq (    5) =      14.540201 [THz] =     485.008901 [cm-1]
     freq (    6) =      14.540201 [THz] =     485.008901 [cm-1]
 **************************************************************************

     Number of q in the star =    4
     List of q in the star:
          1   0.500000000  -0.500000000   0.500000000
          2   0.500000000   0.500000000   0.500000000
          3  -0.500000000   0.500000000   0.500000000
          4   0.500000000   0.500000000  -0.500000000
       Writing drho for q = (  0.500000 -0.500000  0.500000) on file "drho.0_0_-1o2"
       Writing drho for q = (  0.500000  0.500000  0.500000) on file "drho.0_1o2_0"
       Writing drho for q = ( -0.500000  0.500000  0.500000) on file "drho.1o2_1o2_1o2"
       Writing drho for q = (  0.500000  0.500000 -0.500000) on file "drho.-1o2_0_0"

     Calculation of q =    0.0000000   0.5000000   0.0000000

     G-vector sticks info
     --------------------
     sticks:   dense  smooth     PW     G-vecs:    dense   smooth      PW
     Sum         349     349    121                 4279     4279     893

     Using Slab Decomposition


     Title: 
     Ph                                                                         


     bravais-lattice index     =            2
     lattice parameter (alat)  =      10.2000  a.u.
     unit-cell volume          =     265.3020 (a.u.)^3
     number of atoms/cell      =            2
     number of atomic types    =            1
     number of electrons       =         8.00
     number of Kohn-Sham states=            4
     kinetic-energy cutoff     =      24.0000  Ry
     charge density cutoff     =      96.0000  Ry
     Exchange-correlation= PZ
                           (   1   1   0   0   0   0   0)

     celldm(1)=  10.200000  celldm(2)=   0.000000  celldm(3)=   0.000000
     celldm(4)=   0.000000  celldm(5)=   0.000000  celldm(6)=   0.000000

     crystal axes: (cart. coord. in units of alat)
               a(1) = (  -0.500000   0.000000   0.500000 )  
               a(2) = (   0.000000   0.500000   0.500000 )  
               a(3) = (  -0.500000   0.500000   0.000000 )  

     reciprocal axes: (cart. coord. in units 2 pi/alat)
               b(1) = ( -1.000000 -1.000000  1.000000 )  
               b(2) = (  1.000000  1.000000  1.000000 )  
               b(3) = ( -1.000000  1.000000 -1.000000 )  


     PseudoPot. # 1 for Si read from file:
     ./UPF/Si.pz-rrkj.UPF
     MD5 check sum: 884b380b739b48e9cd334294cddc9a8d
     Pseudo is Norm-conserving, Zval =  4.0
     Generated using "atomic" code by A. Dal Corso (espresso distribution)
     Using radial grid of 1141 points,  2 beta functions with: 
                l(1) =   0
                l(2) =   1

     atomic species   valence    mass     pseudopotential
     Si                4.00    28.08600     Si( 1.00)

     48 Sym. Ops., with inversion, found



   Cartesian axes

     site n.     atom                  positions (alat units)
         1        Si     tau(   1) = (   0.0000000   0.0000000   0.0000000  )
         2        Si     tau(   2) = (   0.2500000   0.2500000   0.2500000  )

     number of k points=    36
                       cart. coord. in units 2pi/alat
        k(    1) = (   0.0000000   0.0000000   0.0000000), wk =   0.0312500
        k(    2) = (   0.0000000   0.5000000   0.0000000), wk =   0.0000000
        k(    3) = (  -0.2500000   0.2500000  -0.2500000), wk =   0.1250000
        k(    4) = (  -0.2500000   0.7500000  -0.2500000), wk =   0.0000000
        k(    5) = (   0.5000000  -0.5000000   0.5000000), wk =   0.1250000
        k(    6) = (   0.5000000   0.0000000   0.5000000), wk =   0.0000000
        k(    7) = (   0.0000000   0.5000000   0.0000000), wk =   0.0312500
        k(    8) = (   0.0000000   1.0000000   0.0000000), wk =   0.0000000
        k(    9) = (   0.7500000  -0.2500000   0.7500000), wk =   0.1250000
        k(   10) = (   0.7500000   0.2500000   0.7500000), wk =   0.0000000
        k(   11) = (   0.5000000   0.0000000   0.5000000), wk =   0.1250000
        k(   12) = (   0.5000000   0.5000000   0.5000000), wk =   0.0000000
        k(   13) = (   0.0000000  -1.0000000   0.0000000), wk =   0.0312500
        k(   14) = (   0.0000000  -0.5000000   0.0000000), wk =   0.0000000
        k(   15) = (  -0.5000000  -1.0000000   0.0000000), wk =   0.1250000
        k(   16) = (  -0.5000000  -0.5000000   0.0000000), wk =   0.0000000
        k(   17) = (   0.2500000  -0.2500000   0.2500000), wk =   0.1250000
        k(   18) = (   0.2500000   0.2500000   0.2500000), wk =   0.0000000
        k(   19) = (   0.0000000  -0.5000000   0.0000000), wk =   0.0312500
        k(   20) = (   0.0000000   0.0000000   0.0000000), wk =   0.0000000
        k(   21) = (   0.5000000   0.0000000   0.0000000), wk =   0.1250000
        k(   22) = (   0.5000000   0.5000000   0.0000000), wk =   0.0000000
        k(   23) = (  -0.7500000   0.2500000  -0.7500000), wk =   0.1250000
        k(   24) = (  -0.7500000   0.7500000  -0.7500000), wk =   0.0000000
        k(   25) = (  -0.2500000   0.7500000  -0.7500000), wk =   0.2500000
        k(   26) = (  -0.2500000   1.2500000  -0.7500000), wk =   0.0000000
        k(   27) = (  -0.2500000  -0.7500000  -0.7500000), wk =   0.2500000
        k(   28) = (  -0.2500000  -0.2500000  -0.7500000), wk =   0.0000000
        k(   29) = (   0.0000000   0.5000000  -0.5000000), wk =   0.1250000
        k(   30) = (   0.0000000   1.0000000  -0.5000000), wk =   0.0000000
        k(   31) = (   0.0000000  -0.5000000  -0.5000000), wk =   0.1250000
        k(   32) = (   0.0000000   0.0000000  -0.5000000), wk =   0.0000000
        k(   33) = (  -1.0000000   0.0000000   0.0000000), wk =   0.0625000
        k(   34) = (  -1.0000000   0.5000000   0.0000000), wk =   0.0000000
        k(   35) = (  -1.0000000  -0.5000000   0.0000000), wk =   0.0625000
        k(   36) = (  -1.0000000   0.0000000   0.0000000), wk =   0.0000000

     Dense  grid:     4279 G-vectors     FFT dimensions: (  24,  24,  24)

     Estimated max dynamical RAM per process >       1.95 MB

     The potential is recalculated from file :
     ./tmp/_ph0/silicon.save/charge-density

     Starting wfcs are    8 atomic wfcs

     Band Structure Calculation
     Davidson diagonalization with overlap

     ethr =  1.25E-10,  avg # of iterations =  9.7

     total cpu time spent up to now is        0.7 secs

     End of band structure calculation

          k = 0.0000 0.0000 0.0000 (   531 PWs)   bands (ev):

    -5.8298   6.2602   6.2602   6.2602

          k = 0.0000 0.5000 0.0000 (   528 PWs)   bands (ev):

    -4.7302   2.7329   4.3342   4.3342

          k =-0.2500 0.2500-0.2500 (   531 PWs)   bands (ev):

    -5.0163   2.2803   5.4898   5.4898

          k =-0.2500 0.7500-0.2500 (   529 PWs)   bands (ev):

    -3.0601  -0.1827   2.6418   4.0173

          k = 0.5000-0.5000 0.5000 (   544 PWs)   bands (ev):

    -3.4435  -0.8222   5.0488   5.0488

          k = 0.5000 0.0000 0.5000 (   524 PWs)   bands (ev):

    -3.7482   0.7368   2.4091   4.9135

          k = 0.0000 0.5000 0.0000 (   528 PWs)   bands (ev):

    -4.7302   2.7329   4.3342   4.3342

          k = 0.0000 1.0000 0.0000 (   524 PWs)   bands (ev):

    -1.6182  -1.6182   3.3581   3.3581

          k = 0.7500-0.2500 0.7500 (   529 PWs)   bands (ev):

    -3.0601  -0.1827   2.6418   4.0173

          k = 0.7500 0.2500 0.7500 (   529 PWs)   bands (ev):

    -3.0601  -0.1827   2.6418   4.0173

          k = 0.5000 0.0000 0.5000 (   524 PWs)   bands (ev):

    -3.7482   0.7368   2.4091   4.9135

          k = 0.5000 0.5000 0.5000 (   544 PWs)   bands (ev):

    -3.4435  -0.8222   5.0488   5.0488

          k = 0.0000-1.0000 0.0000 (   524 PWs)   bands (ev):

    -1.6182  -1.6182   3.3581   3.3581

          k = 0.0000-0.5000 0.0000 (   528 PWs)   bands (ev):

    -4.7302   2.7329   4.3342   4.3342

          k =-0.5000-1.0000 0.0000 (   516 PWs)   bands (ev):

    -1.4420  -1.4420   2.3021   2.3021

          k =-0.5000-0.5000 0.0000 (   524 PWs)   bands (ev):

    -3.7482   0.7368   2.4091   4.9135

          k = 0.2500-0.2500 0.2500 (   531 PWs)   bands (ev):

    -5.0163   2.2803   5.4898   5.4898

          k = 0.2500 0.2500 0.2500 (   531 PWs)   bands (ev):

    -5.0163   2.2803   5.4898   5.4898

          k = 0.0000-0.5000 0.0000 (   528 PWs)   bands (ev):

    -4.7302   2.7329   4.3342   4.3342

          k = 0.0000 0.0000 0.0000 (   531 PWs)   bands (ev):

    -5.8298   6.2602   6.2602   6.2602

          k = 0.5000 0.0000 0.0000 (   528 PWs)   bands (ev):

    -4.7302   2.7329   4.3342   4.3342

          k = 0.5000 0.5000 0.0000 (   524 PWs)   bands (ev):

    -3.7482   0.7368   2.4091   4.9135

          k =-0.7500 0.2500-0.7500 (   529 PWs)   bands (ev):

    -3.0601  -0.1827   2.6418   4.0173

          k =-0.7500 0.7500-0.7500 (   531 PWs)   bands (ev):

    -5.0163   2.2803   5.4898   5.4898

          k =-0.2500 0.7500-0.7500 (   529 PWs)   bands (ev):

    -3.0601  -0.1827   2.6418   4.0173

          k =-0.2500 1.2500-0.7500 (   529 PWs)   bands (ev):

    -3.0601  -0.1827   2.6418   4.0173

          k =-0.2500-0.7500-0.7500 (   529 PWs)   bands (ev):

    -3.0601  -0.1827   2.6418   4.0173

          k =-0.2500-0.2500-0.7500 (   529 PWs)   bands (ev):

    -3.0601  -0.1827   2.6418   4.0173

          k = 0.0000 0.5000-0.5000 (   524 PWs)   bands (ev):

    -3.7482   0.7368   2.4091   4.9135

          k = 0.0000 1.0000-0.5000 (   516 PWs)   bands (ev):

    -1.4420  -1.4420   2.3021   2.3021

          k = 0.0000-0.5000-0.5000 (   524 PWs)   bands (ev):

    -3.7482   0.7368   2.4091   4.9135

          k = 0.0000 0.0000-0.5000 (   528 PWs)   bands (ev):

    -4.7302   2.7329   4.3342   4.3342

          k =-1.0000 0.0000 0.0000 (   524 PWs)   bands (ev):

    -1.6182  -1.6182   3.3581   3.3581

          k =-1.0000 0.5000 0.0000 (   516 PWs)   bands (ev):

    -1.4420  -1.4420   2.3021   2.3021

          k =-1.0000-0.5000 0.0000 (   516 PWs)   bands (ev):

    -1.4420  -1.4420   2.3021   2.3021

          k =-1.0000 0.0000 0.0000 (   524 PWs)   bands (ev):

    -1.6182  -1.6182   3.3581   3.3581

     highest occupied level (ev):     6.2602

     Writing config to output data dir ./tmp/_ph0/silicon.save/ :
     XML data file

     Ph                                                                         

     bravais-lattice index     =            2
     lattice parameter (alat)  =      10.2000  a.u.
     unit-cell volume          =     265.3020 (a.u.)^3
     number of atoms/cell      =            2
     number of atomic types    =            1
     kinetic-energy cut-off    =      24.0000  Ry
     charge density cut-off    =      96.0000  Ry
     convergence threshold     =      1.0E-16
     beta                      =       0.7000
     number of iterations used =            4
     Exchange-correlation= PZ
                           (   1   1   0   0   0   0   0)


     celldm(1)=   10.20000  celldm(2)=    0.00000  celldm(3)=    0.00000
     celldm(4)=    0.00000  celldm(5)=    0.00000  celldm(6)=    0.00000

     crystal axes: (cart. coord. in units of alat)
               a(1) = ( -0.5000  0.0000  0.5000 )  
               a(2) = (  0.0000  0.5000  0.5000 )  
               a(3) = ( -0.5000  0.5000  0.0000 )  

     reciprocal axes: (cart. coord. in units 2 pi/alat)
               b(1) = ( -1.0000 -1.0000  1.0000 )  
               b(2) = (  1.0000  1.0000  1.0000 )  
               b(3) = ( -1.0000  1.0000 -1.0000 )  


     Atoms inside the unit cell: 

     Cartesian axes

     site n.  atom      mass           positions (alat units)
        1  Si     28.0860   tau(    1) = (    0.00000    0.00000    0.00000  )
        2  Si     28.0860   tau(    2) = (    0.25000    0.25000    0.25000  )

     Computing dynamical matrix for 
                    q = (   0.0000000   0.5000000   0.0000000 )

      8 Sym.Ops. (no q -> -q+G )


     G cutoff =  252.9949  (   4279 G-vectors)     FFT grid: ( 24, 24, 24)
     number of k points=    36

     PseudoPot. # 1 for Si read from file:
     ./UPF/Si.pz-rrkj.UPF
     MD5 check sum: 884b380b739b48e9cd334294cddc9a8d
     Pseudo is Norm-conserving, Zval =  4.0
     Generated using "atomic" code by A. Dal Corso (espresso distribution)
     Using radial grid of 1141 points,  2 beta functions with: 
                l(1) =   0
                l(2) =   1

     Mode symmetry, C_4v (4mm)  point group:


     Atomic displacements:
     There are    4 irreducible representations

     Representation     1      1 modes -  To be done

     Representation     2      1 modes -  To be done

     Representation     3      2 modes -  To be done

     Representation     4      2 modes -  To be done



     Alpha used in Ewald sum =   1.0000
     PHONON       :     10.41s CPU     10.86s WALL



     Representation #   1 mode #   1

     Self-consistent Calculation

      iter #   1 total cpu time :    10.9 secs   av.it.:   5.7
      thresh= 1.000E-02 alpha_mix =  0.700 |ddv_scf|^2 =  1.708E-03

      iter #   2 total cpu time :    11.0 secs   av.it.:   7.6
      thresh= 4.133E-03 alpha_mix =  0.700 |ddv_scf|^2 =  2.066E-02

      iter #   3 total cpu time :    11.1 secs   av.it.:   6.4
      thresh= 1.000E-02 alpha_mix =  0.700 |ddv_scf|^2 =  1.832E-08

      iter #   4 total cpu time :    11.2 secs   av.it.:   8.3
      thresh= 1.354E-05 alpha_mix =  0.700 |ddv_scf|^2 =  1.218E-09

      iter #   5 total cpu time :    11.3 secs   av.it.:   7.9
      thresh= 3.490E-06 alpha_mix =  0.700 |ddv_scf|^2 =  2.707E-11

      iter #   6 total cpu time :    11.3 secs   av.it.:   7.2
      thresh= 5.203E-07 alpha_mix =  0.700 |ddv_scf|^2 =  8.548E-13

      iter #   7 total cpu time :    11.4 secs   av.it.:   6.3
      thresh= 9.246E-08 alpha_mix =  0.700 |ddv_scf|^2 =  3.315E-15

      iter #   8 total cpu time :    11.5 secs   av.it.:   6.9
      thresh= 5.757E-09 alpha_mix =  0.700 |ddv_scf|^2 =  1.774E-18

     End of self-consistent calculation

     Convergence has been achieved 


     Representation #   2 mode #   2

     Self-consistent Calculation

      iter #   1 total cpu time :    11.6 secs   av.it.:   5.2
      thresh= 1.000E-02 alpha_mix =  0.700 |ddv_scf|^2 =  3.228E-06

      iter #   2 total cpu time :    11.6 secs   av.it.:   8.2
      thresh= 1.797E-04 alpha_mix =  0.700 |ddv_scf|^2 =  7.161E-07

      iter #   3 total cpu time :    11.7 secs   av.it.:   8.1
      thresh= 8.462E-05 alpha_mix =  0.700 |ddv_scf|^2 =  3.275E-09

      iter #   4 total cpu time :    11.8 secs   av.it.:   8.1
      thresh= 5.722E-06 alpha_mix =  0.700 |ddv_scf|^2 =  8.532E-11

      iter #   5 total cpu time :    11.9 secs   av.it.:   7.7
      thresh= 9.237E-07 alpha_mix =  0.700 |ddv_scf|^2 =  1.353E-12

      iter #   6 total cpu time :    12.0 secs   av.it.:   7.6
      thresh= 1.163E-07 alpha_mix =  0.700 |ddv_scf|^2 =  7.091E-16

      iter #   7 total cpu time :    12.1 secs   av.it.:   8.4
      thresh= 2.663E-09 alpha_mix =  0.700 |ddv_scf|^2 =  2.323E-17

     End of self-consistent calculation

     Convergence has been achieved 


     Representation #   3 modes #   3   4

     Self-consistent Calculation

      iter #   1 total cpu time :    12.2 secs   av.it.:   5.5
      thresh= 1.000E-02 alpha_mix =  0.700 |ddv_scf|^2 =  7.648E-07

      iter #   2 total cpu time :    12.4 secs   av.it.:   9.2
      thresh= 8.745E-05 alpha_mix =  0.700 |ddv_scf|^2 =  1.300E-07

      iter #   3 total cpu time :    12.6 secs   av.it.:   8.9
      thresh= 3.606E-05 alpha_mix =  0.700 |ddv_scf|^2 =  1.223E-10

      iter #   4 total cpu time :    12.8 secs   av.it.:   8.7
      thresh= 1.106E-06 alpha_mix =  0.700 |ddv_scf|^2 =  5.970E-12

      iter #   5 total cpu time :    13.0 secs   av.it.:   8.6
      thresh= 2.443E-07 alpha_mix =  0.700 |ddv_scf|^2 =  5.890E-15

      iter #   6 total cpu time :    13.2 secs   av.it.:   9.6
      thresh= 7.674E-09 alpha_mix =  0.700 |ddv_scf|^2 =  2.095E-17

     End of self-consistent calculation

     Convergence has been achieved 


     Representation #   4 modes #   5   6

     Self-consistent Calculation

      iter #   1 total cpu time :    13.3 secs   av.it.:   5.4
      thresh= 1.000E-02 alpha_mix =  0.700 |ddv_scf|^2 =  5.047E-07

      iter #   2 total cpu time :    13.5 secs   av.it.:   9.2
      thresh= 7.104E-05 alpha_mix =  0.700 |ddv_scf|^2 =  8.356E-08

      iter #   3 total cpu time :    13.7 secs   av.it.:   8.9
      thresh= 2.891E-05 alpha_mix =  0.700 |ddv_scf|^2 =  1.295E-10

      iter #   4 total cpu time :    13.9 secs   av.it.:   8.8
      thresh= 1.138E-06 alpha_mix =  0.700 |ddv_scf|^2 =  6.730E-12

      iter #   5 total cpu time :    14.0 secs   av.it.:   8.5
      thresh= 2.594E-07 alpha_mix =  0.700 |ddv_scf|^2 =  6.814E-15

      iter #   6 total cpu time :    14.2 secs   av.it.:   9.5
      thresh= 8.254E-09 alpha_mix =  0.700 |ddv_scf|^2 =  2.561E-17

     End of self-consistent calculation

     Convergence has been achieved 

     Number of q in the star =    6
     List of q in the star:
          1   0.000000000   0.500000000   0.000000000
          2   0.000000000  -0.500000000   0.000000000
          3   0.500000000   0.000000000   0.000000000
          4   0.000000000   0.000000000   0.500000000
          5   0.000000000   0.000000000  -0.500000000
          6  -0.500000000   0.000000000   0.000000000

     Diagonalizing the dynamical matrix

     q = (    0.000000000   0.500000000   0.000000000 ) 

 **************************************************************************
     freq (    1) =       3.774139 [THz] =     125.891737 [cm-1]
     freq (    2) =       3.774139 [THz] =     125.891737 [cm-1]
     freq (    3) =       7.166848 [THz] =     239.060317 [cm-1]
     freq (    4) =      14.177460 [THz] =     472.909170 [cm-1]
     freq (    5) =      14.177460 [THz] =     472.909170 [cm-1]
     freq (    6) =      14.884766 [THz] =     496.502349 [cm-1]
 **************************************************************************

     Mode symmetry, C_4v (4mm)  point group:

     freq (   1-   2) =        125.9  [cm-1]   --> E    G_5 D_5       
     freq (   3-   3) =        239.1  [cm-1]   --> A_1  G_1 D_1       
     freq (   4-   5) =        472.9  [cm-1]   --> E    G_5 D_5       
     freq (   6-   6) =        496.5  [cm-1]   --> B_2  G_4 D_2'      

     Number of q in the star =    6
     List of q in the star:
          1   0.000000000   0.500000000   0.000000000
          2   0.000000000  -0.500000000   0.000000000
          3   0.500000000   0.000000000   0.000000000
          4   0.000000000   0.000000000   0.500000000
          5   0.000000000   0.000000000  -0.500000000
          6  -0.500000000   0.000000000   0.000000000
       Writing drho for q = (  0.000000  0.500000  0.000000) on file "drho.0_1o4_1o4"
       Writing drho for q = (  0.000000 -0.500000  0.000000) on file "drho.0_-1o4_-1o4"
       Writing drho for q = (  0.500000  0.000000  0.000000) on file "drho.-1o4_0_-1o4"
       Writing drho for q = (  0.000000  0.000000  0.500000) on file "drho.1o4_1o4_0"
       Writing drho for q = (  0.000000  0.000000 -0.500000) on file "drho.-1o4_-1o4_0"
       Writing drho for q = ( -0.500000  0.000000  0.000000) on file "drho.1o4_0_1o4"

     Calculation of q =    0.7500000  -0.2500000   0.7500000

     G-vector sticks info
     --------------------
     sticks:   dense  smooth     PW     G-vecs:    dense   smooth      PW
     Sum         349     349    139                 4279     4279    1067

     Using Slab Decomposition


     Title: 
     Ph                                                                         


     bravais-lattice index     =            2
     lattice parameter (alat)  =      10.2000  a.u.
     unit-cell volume          =     265.3020 (a.u.)^3
     number of atoms/cell      =            2
     number of atomic types    =            1
     number of electrons       =         8.00
     number of Kohn-Sham states=            4
     kinetic-energy cutoff     =      24.0000  Ry
     charge density cutoff     =      96.0000  Ry
     Exchange-correlation= PZ
                           (   1   1   0   0   0   0   0)

     celldm(1)=  10.200000  celldm(2)=   0.000000  celldm(3)=   0.000000
     celldm(4)=   0.000000  celldm(5)=   0.000000  celldm(6)=   0.000000

     crystal axes: (cart. coord. in units of alat)
               a(1) = (  -0.500000   0.000000   0.500000 )  
               a(2) = (   0.000000   0.500000   0.500000 )  
               a(3) = (  -0.500000   0.500000   0.000000 )  

     reciprocal axes: (cart. coord. in units 2 pi/alat)
               b(1) = ( -1.000000 -1.000000  1.000000 )  
               b(2) = (  1.000000  1.000000  1.000000 )  
               b(3) = ( -1.000000  1.000000 -1.000000 )  


     PseudoPot. # 1 for Si read from file:
     ./UPF/Si.pz-rrkj.UPF
     MD5 check sum: 884b380b739b48e9cd334294cddc9a8d
     Pseudo is Norm-conserving, Zval =  4.0
     Generated using "atomic" code by A. Dal Corso (espresso distribution)
     Using radial grid of 1141 points,  2 beta functions with: 
                l(1) =   0
                l(2) =   1

     atomic species   valence    mass     pseudopotential
     Si                4.00    28.08600     Si( 1.00)

     48 Sym. Ops., with inversion, found



   Cartesian axes

     site n.     atom                  positions (alat units)
         1        Si     tau(   1) = (   0.0000000   0.0000000   0.0000000  )
         2        Si     tau(   2) = (   0.2500000   0.2500000   0.2500000  )

     number of k points=    80
                       cart. coord. in units 2pi/alat
        k(    1) = (   0.0000000   0.0000000   0.0000000), wk =   0.0312500
        k(    2) = (   0.7500000  -0.2500000   0.7500000), wk =   0.0000000
        k(    3) = (  -0.2500000   0.2500000  -0.2500000), wk =   0.0312500
        k(    4) = (   0.5000000   0.0000000   0.5000000), wk =   0.0000000
        k(    5) = (   0.5000000  -0.5000000   0.5000000), wk =   0.0312500
        k(    6) = (   1.2500000  -0.7500000   1.2500000), wk =   0.0000000
        k(    7) = (   0.0000000   0.5000000   0.0000000), wk =   0.0312500
        k(    8) = (   0.7500000   0.2500000   0.7500000), wk =   0.0000000
        k(    9) = (   0.7500000  -0.2500000   0.7500000), wk =   0.0312500
        k(   10) = (   1.5000000  -0.5000000   1.5000000), wk =   0.0000000
        k(   11) = (   0.5000000   0.0000000   0.5000000), wk =   0.0312500
        k(   12) = (   1.2500000  -0.2500000   1.2500000), wk =   0.0000000
        k(   13) = (   0.0000000  -1.0000000   0.0000000), wk =   0.0312500
        k(   14) = (   0.7500000  -1.2500000   0.7500000), wk =   0.0000000
        k(   15) = (  -0.5000000  -1.0000000   0.0000000), wk =   0.0625000
        k(   16) = (   0.2500000  -1.2500000   0.7500000), wk =   0.0000000
        k(   17) = (  -0.2500000   0.2500000   0.2500000), wk =   0.0625000
        k(   18) = (   0.5000000   0.0000000   1.0000000), wk =   0.0000000
        k(   19) = (   0.2500000   0.2500000   0.2500000), wk =   0.0312500
        k(   20) = (   1.0000000   0.0000000   1.0000000), wk =   0.0000000
        k(   21) = (   0.2500000  -0.2500000   0.2500000), wk =   0.0312500
        k(   22) = (   1.0000000  -0.5000000   1.0000000), wk =   0.0000000
        k(   23) = (  -0.2500000  -0.2500000  -0.2500000), wk =   0.0312500
        k(   24) = (   0.5000000  -0.5000000   0.5000000), wk =   0.0000000
        k(   25) = (   0.2500000  -0.2500000  -0.2500000), wk =   0.0625000
        k(   26) = (   1.0000000  -0.5000000   0.5000000), wk =   0.0000000
        k(   27) = (   0.5000000  -0.5000000  -0.5000000), wk =   0.0625000
        k(   28) = (   1.2500000  -0.7500000   0.2500000), wk =   0.0000000
        k(   29) = (  -0.5000000  -0.5000000  -0.5000000), wk =   0.0312500
        k(   30) = (   0.2500000  -0.7500000   0.2500000), wk =   0.0000000
        k(   31) = (   0.0000000  -0.5000000   0.0000000), wk =   0.0312500
        k(   32) = (   0.7500000  -0.7500000   0.7500000), wk =   0.0000000
        k(   33) = (   0.5000000   0.0000000   0.0000000), wk =   0.0625000
        k(   34) = (   1.2500000  -0.2500000   0.7500000), wk =   0.0000000
        k(   35) = (   0.0000000   0.0000000  -0.5000000), wk =   0.0625000
        k(   36) = (   0.7500000  -0.2500000   0.2500000), wk =   0.0000000
        k(   37) = (   0.7500000  -0.2500000  -0.7500000), wk =   0.0625000
        k(   38) = (   1.5000000  -0.5000000   0.0000000), wk =   0.0000000
        k(   39) = (  -0.7500000  -0.2500000  -0.7500000), wk =   0.0312500
        k(   40) = (   0.0000000  -0.5000000   0.0000000), wk =   0.0000000
        k(   41) = (  -0.7500000   0.2500000  -0.7500000), wk =   0.0312500
        k(   42) = (   0.0000000   0.0000000   0.0000000), wk =   0.0000000
        k(   43) = (  -0.2500000   0.7500000  -0.7500000), wk =   0.0625000
        k(   44) = (   0.5000000   0.5000000   0.0000000), wk =   0.0000000
        k(   45) = (   0.7500000   0.2500000   0.7500000), wk =   0.0312500
        k(   46) = (   1.5000000   0.0000000   1.5000000), wk =   0.0000000
        k(   47) = (  -0.7500000   0.2500000   0.7500000), wk =   0.0625000
        k(   48) = (   0.0000000   0.0000000   1.5000000), wk =   0.0000000
        k(   49) = (  -0.7500000   0.7500000   0.2500000), wk =   0.0625000
        k(   50) = (   0.0000000   0.5000000   1.0000000), wk =   0.0000000
        k(   51) = (  -0.2500000   0.7500000   0.7500000), wk =   0.0625000
        k(   52) = (   0.5000000   0.5000000   1.5000000), wk =   0.0000000
        k(   53) = (  -0.2500000  -0.7500000  -0.7500000), wk =   0.0625000
        k(   54) = (   0.5000000  -1.0000000   0.0000000), wk =   0.0000000
        k(   55) = (   0.7500000  -0.7500000   0.2500000), wk =   0.0625000
        k(   56) = (   1.5000000  -1.0000000   1.0000000), wk =   0.0000000
        k(   57) = (  -0.7500000  -0.7500000   0.2500000), wk =   0.0625000
        k(   58) = (   0.0000000  -1.0000000   1.0000000), wk =   0.0000000
        k(   59) = (   0.2500000   0.7500000   0.7500000), wk =   0.0625000
        k(   60) = (   1.0000000   0.5000000   1.5000000), wk =   0.0000000
        k(   61) = (  -0.2500000  -0.7500000   0.7500000), wk =   0.0625000
        k(   62) = (   0.5000000  -1.0000000   1.5000000), wk =   0.0000000
        k(   63) = (   0.5000000   0.0000000  -0.5000000), wk =   0.0625000
        k(   64) = (   1.2500000  -0.2500000   0.2500000), wk =   0.0000000
        k(   65) = (  -0.5000000   0.0000000  -0.5000000), wk =   0.0312500
        k(   66) = (   0.2500000  -0.2500000   0.2500000), wk =   0.0000000
        k(   67) = (   0.0000000   0.5000000  -0.5000000), wk =   0.0625000
        k(   68) = (   0.7500000   0.2500000   0.2500000), wk =   0.0000000
        k(   69) = (   0.0000000   0.5000000   0.5000000), wk =   0.0625000
        k(   70) = (   0.7500000   0.2500000   1.2500000), wk =   0.0000000
        k(   71) = (   0.0000000  -0.5000000  -0.5000000), wk =   0.0625000
        k(   72) = (   0.7500000  -0.7500000   0.2500000), wk =   0.0000000
        k(   73) = (   0.5000000  -0.5000000   0.0000000), wk =   0.0625000
        k(   74) = (   1.2500000  -0.7500000   0.7500000), wk =   0.0000000
        k(   75) = (  -1.0000000   0.0000000   0.0000000), wk =   0.0625000
        k(   76) = (  -0.2500000  -0.2500000   0.7500000), wk =   0.0000000
        k(   77) = (   0.5000000  -1.0000000   0.0000000), wk =   0.0625000
        k(   78) = (   1.2500000  -1.2500000   0.7500000), wk =   0.0000000
        k(   79) = (  -1.0000000  -0.5000000   0.0000000), wk =   0.0625000
        k(   80) = (  -0.2500000  -0.7500000   0.7500000), wk =   0.0000000

     Dense  grid:     4279 G-vectors     FFT dimensions: (  24,  24,  24)

     Estimated max dynamical RAM per process >       1.95 MB

     The potential is recalculated from file :
     ./tmp/_ph0/silicon.save/charge-density

     Starting wfcs are    8 atomic wfcs

     Band Structure Calculation
     Davidson diagonalization with overlap

     ethr =  1.25E-10,  avg # of iterations =  9.8

     total cpu time spent up to now is        1.2 secs

     End of band structure calculation

          k = 0.0000 0.0000 0.0000 (   531 PWs)   bands (ev):

    -5.8298   6.2602   6.2602   6.2602

          k = 0.7500-0.2500 0.7500 (   529 PWs)   bands (ev):

    -3.0601  -0.1827   2.6418   4.0173

          k =-0.2500 0.2500-0.2500 (   531 PWs)   bands (ev):

    -5.0163   2.2803   5.4898   5.4898

          k = 0.5000 0.0000 0.5000 (   524 PWs)   bands (ev):

    -3.7482   0.7368   2.4091   4.9135

          k = 0.5000-0.5000 0.5000 (   544 PWs)   bands (ev):

    -3.4435  -0.8222   5.0488   5.0488

          k = 1.2500-0.7500 1.2500 (   531 PWs)   bands (ev):

    -5.0163   2.2803   5.4898   5.4898

          k = 0.0000 0.5000 0.0000 (   528 PWs)   bands (ev):

    -4.7302   2.7329   4.3342   4.3342

          k = 0.7500 0.2500 0.7500 (   529 PWs)   bands (ev):

    -3.0601  -0.1827   2.6418   4.0173

          k = 0.7500-0.2500 0.7500 (   529 PWs)   bands (ev):

    -3.0601  -0.1827   2.6418   4.0173

          k = 1.5000-0.5000 1.5000 (   544 PWs)   bands (ev):

    -3.4435  -0.8222   5.0488   5.0488

          k = 0.5000 0.0000 0.5000 (   524 PWs)   bands (ev):

    -3.7482   0.7368   2.4091   4.9135

          k = 1.2500-0.2500 1.2500 (   529 PWs)   bands (ev):

    -3.0601  -0.1827   2.6418   4.0173

          k = 0.0000-1.0000 0.0000 (   524 PWs)   bands (ev):

    -1.6182  -1.6182   3.3581   3.3581

          k = 0.7500-1.2500 0.7500 (   531 PWs)   bands (ev):

    -5.0163   2.2803   5.4898   5.4898

          k =-0.5000-1.0000 0.0000 (   516 PWs)   bands (ev):

    -1.4420  -1.4420   2.3021   2.3021

          k = 0.2500-1.2500 0.7500 (   529 PWs)   bands (ev):

    -3.0601  -0.1827   2.6418   4.0173

          k =-0.2500 0.2500 0.2500 (   531 PWs)   bands (ev):

    -5.0163   2.2803   5.4898   5.4898

          k = 0.5000 0.0000 1.0000 (   516 PWs)   bands (ev):

    -1.4420  -1.4420   2.3021   2.3021

          k = 0.2500 0.2500 0.2500 (   531 PWs)   bands (ev):

    -5.0163   2.2803   5.4898   5.4898

          k = 1.0000 0.0000 1.0000 (   524 PWs)   bands (ev):

    -1.6182  -1.6182   3.3581   3.3581

          k = 0.2500-0.2500 0.2500 (   531 PWs)   bands (ev):

    -5.0163   2.2803   5.4898   5.4898

          k = 1.0000-0.5000 1.0000 (   528 PWs)   bands (ev):

    -4.7302   2.7329   4.3342   4.3342

          k =-0.2500-0.2500-0.2500 (   531 PWs)   bands (ev):

    -5.0163   2.2803   5.4898   5.4898

          k = 0.5000-0.5000 0.5000 (   544 PWs)   bands (ev):

    -3.4435  -0.8222   5.0488   5.0488

          k = 0.2500-0.2500-0.2500 (   531 PWs)   bands (ev):

    -5.0163   2.2803   5.4898   5.4898

[...]

     atomic species   valence    mass     pseudopotential
     Si                4.00    28.08600     Si( 1.00)

     48 Sym. Ops., with inversion, found



   Cartesian axes

     site n.     atom                  positions (alat units)
         1        Si     tau(   1) = (   0.0000000   0.0000000   0.0000000  )
         2        Si     tau(   2) = (   0.2500000   0.2500000   0.2500000  )

     number of k points=    32
                       cart. coord. in units 2pi/alat
        k(    1) = (   0.0000000   0.0000000   0.0000000), wk =   0.0312500
        k(    2) = (  -0.5000000  -1.0000000   0.0000000), wk =   0.0000000
        k(    3) = (  -0.2500000   0.2500000  -0.2500000), wk =   0.2500000
        k(    4) = (  -0.7500000  -0.7500000  -0.2500000), wk =   0.0000000
        k(    5) = (   0.5000000  -0.5000000   0.5000000), wk =   0.1250000
        k(    6) = (   0.0000000  -1.5000000   0.5000000), wk =   0.0000000
        k(    7) = (   0.0000000   0.5000000   0.0000000), wk =   0.1250000
        k(    8) = (  -0.5000000  -0.5000000   0.0000000), wk =   0.0000000
        k(    9) = (   0.7500000  -0.2500000   0.7500000), wk =   0.2500000
        k(   10) = (   0.2500000  -1.2500000   0.7500000), wk =   0.0000000
        k(   11) = (   0.5000000   0.0000000   0.5000000), wk =   0.1250000
        k(   12) = (   0.0000000  -1.0000000   0.5000000), wk =   0.0000000
        k(   13) = (   0.0000000  -1.0000000   0.0000000), wk =   0.0625000
        k(   14) = (  -0.5000000  -2.0000000   0.0000000), wk =   0.0000000
        k(   15) = (  -0.5000000  -1.0000000   0.0000000), wk =   0.0312500
        k(   16) = (  -1.0000000  -2.0000000   0.0000000), wk =   0.0000000
        k(   17) = (   0.5000000   0.0000000   0.0000000), wk =   0.0625000
        k(   18) = (   0.0000000  -1.0000000   0.0000000), wk =   0.0000000
        k(   19) = (  -0.7500000   0.2500000  -0.7500000), wk =   0.2500000
        k(   20) = (  -1.2500000  -0.7500000  -0.7500000), wk =   0.0000000
        k(   21) = (  -0.2500000   0.7500000   0.7500000), wk =   0.2500000
        k(   22) = (  -0.7500000  -0.2500000   0.7500000), wk =   0.0000000
        k(   23) = (  -0.5000000   0.0000000  -0.5000000), wk =   0.1250000
        k(   24) = (  -1.0000000  -1.0000000  -0.5000000), wk =   0.0000000
        k(   25) = (   0.0000000   0.5000000   0.5000000), wk =   0.1250000
        k(   26) = (  -0.5000000  -0.5000000   0.5000000), wk =   0.0000000
        k(   27) = (  -1.0000000   0.0000000   0.0000000), wk =   0.0312500
        k(   28) = (  -1.5000000  -1.0000000   0.0000000), wk =   0.0000000
        k(   29) = (   0.0000000   1.0000000   0.5000000), wk =   0.1250000
        k(   30) = (  -0.5000000   0.0000000   0.5000000), wk =   0.0000000
        k(   31) = (   0.5000000   1.0000000   0.0000000), wk =   0.0312500
        k(   32) = (   0.0000000   0.0000000   0.0000000), wk =   0.0000000

     Dense  grid:     4279 G-vectors     FFT dimensions: (  24,  24,  24)

     Estimated max dynamical RAM per process >       1.95 MB

     The potential is recalculated from file :
     ./tmp/_ph0/silicon.save/charge-density

     Starting wfcs are    8 atomic wfcs

     Band Structure Calculation
     Davidson diagonalization with overlap

     ethr =  1.25E-10,  avg # of iterations =  9.4

     total cpu time spent up to now is        1.9 secs

     End of band structure calculation

          k = 0.0000 0.0000 0.0000 (   531 PWs)   bands (ev):

    -5.8298   6.2602   6.2602   6.2602

          k =-0.5000-1.0000 0.0000 (   516 PWs)   bands (ev):

    -1.4420  -1.4420   2.3021   2.3021

          k =-0.2500 0.2500-0.2500 (   531 PWs)   bands (ev):

    -5.0163   2.2803   5.4898   5.4898

          k =-0.7500-0.7500-0.2500 (   529 PWs)   bands (ev):

    -3.0601  -0.1827   2.6418   4.0173

          k = 0.5000-0.5000 0.5000 (   544 PWs)   bands (ev):

    -3.4435  -0.8222   5.0488   5.0488

          k = 0.0000-1.5000 0.5000 (   524 PWs)   bands (ev):

    -3.7482   0.7368   2.4091   4.9135

          k = 0.0000 0.5000 0.0000 (   528 PWs)   bands (ev):

    -4.7302   2.7329   4.3342   4.3342

          k =-0.5000-0.5000 0.0000 (   524 PWs)   bands (ev):

    -3.7482   0.7368   2.4091   4.9135

          k = 0.7500-0.2500 0.7500 (   529 PWs)   bands (ev):

    -3.0601  -0.1827   2.6418   4.0173

          k = 0.2500-1.2500 0.7500 (   529 PWs)   bands (ev):

    -3.0601  -0.1827   2.6418   4.0173

          k = 0.5000 0.0000 0.5000 (   524 PWs)   bands (ev):

    -3.7482   0.7368   2.4091   4.9135

          k = 0.0000-1.0000 0.5000 (   516 PWs)   bands (ev):

    -1.4420  -1.4420   2.3021   2.3021

          k = 0.0000-1.0000 0.0000 (   524 PWs)   bands (ev):

    -1.6182  -1.6182   3.3581   3.3581

          k =-0.5000-2.0000 0.0000 (   528 PWs)   bands (ev):

    -4.7302   2.7329   4.3342   4.3342

          k =-0.5000-1.0000 0.0000 (   516 PWs)   bands (ev):

    -1.4420  -1.4420   2.3021   2.3021

          k =-1.0000-2.0000 0.0000 (   524 PWs)   bands (ev):

    -1.6182  -1.6182   3.3581   3.3581

          k = 0.5000 0.0000 0.0000 (   528 PWs)   bands (ev):

    -4.7302   2.7329   4.3342   4.3342

          k = 0.0000-1.0000 0.0000 (   524 PWs)   bands (ev):

    -1.6182  -1.6182   3.3581   3.3581

          k =-0.7500 0.2500-0.7500 (   529 PWs)   bands (ev):

    -3.0601  -0.1827   2.6418   4.0173

          k =-1.2500-0.7500-0.7500 (   531 PWs)   bands (ev):

    -5.0163   2.2803   5.4898   5.4898

          k =-0.2500 0.7500 0.7500 (   529 PWs)   bands (ev):

    -3.0601  -0.1827   2.6418   4.0173

          k =-0.7500-0.2500 0.7500 (   529 PWs)   bands (ev):

    -3.0601  -0.1827   2.6418   4.0173

          k =-0.5000 0.0000-0.5000 (   524 PWs)   bands (ev):

    -3.7482   0.7368   2.4091   4.9135

          k =-1.0000-1.0000-0.5000 (   528 PWs)   bands (ev):

    -4.7302   2.7329   4.3342   4.3342

          k = 0.0000 0.5000 0.5000 (   524 PWs)   bands (ev):

    -3.7482   0.7368   2.4091   4.9135

          k =-0.5000-0.5000 0.5000 (   544 PWs)   bands (ev):

    -3.4435  -0.8222   5.0488   5.0488

          k =-1.0000 0.0000 0.0000 (   524 PWs)   bands (ev):

    -1.6182  -1.6182   3.3581   3.3581

          k =-1.5000-1.0000 0.0000 (   516 PWs)   bands (ev):

    -1.4420  -1.4420   2.3021   2.3021

          k = 0.0000 1.0000 0.5000 (   516 PWs)   bands (ev):

    -1.4420  -1.4420   2.3021   2.3021

          k =-0.5000 0.0000 0.5000 (   524 PWs)   bands (ev):

    -3.7482   0.7368   2.4091   4.9135

          k = 0.5000 1.0000 0.0000 (   516 PWs)   bands (ev):

    -1.4420  -1.4420   2.3021   2.3021

          k = 0.0000 0.0000 0.0000 (   531 PWs)   bands (ev):

    -5.8298   6.2602   6.2602   6.2602

     highest occupied level (ev):     6.2602

     Writing config to output data dir ./tmp/_ph0/silicon.save/ :
     XML data file

     Ph                                                                         

     bravais-lattice index     =            2
     lattice parameter (alat)  =      10.2000  a.u.
     unit-cell volume          =     265.3020 (a.u.)^3
     number of atoms/cell      =            2
     number of atomic types    =            1
     kinetic-energy cut-off    =      24.0000  Ry
     charge density cut-off    =      96.0000  Ry
     convergence threshold     =      1.0E-16
     beta                      =       0.7000
     number of iterations used =            4
     Exchange-correlation= PZ
                           (   1   1   0   0   0   0   0)


     celldm(1)=   10.20000  celldm(2)=    0.00000  celldm(3)=    0.00000
     celldm(4)=    0.00000  celldm(5)=    0.00000  celldm(6)=    0.00000

     crystal axes: (cart. coord. in units of alat)
               a(1) = ( -0.5000  0.0000  0.5000 )  
               a(2) = (  0.0000  0.5000  0.5000 )  
               a(3) = ( -0.5000  0.5000  0.0000 )  

     reciprocal axes: (cart. coord. in units 2 pi/alat)
               b(1) = ( -1.0000 -1.0000  1.0000 )  
               b(2) = (  1.0000  1.0000  1.0000 )  
               b(3) = ( -1.0000  1.0000 -1.0000 )  


     Atoms inside the unit cell: 

     Cartesian axes

     site n.  atom      mass           positions (alat units)
        1  Si     28.0860   tau(    1) = (    0.00000    0.00000    0.00000  )
        2  Si     28.0860   tau(    2) = (    0.25000    0.25000    0.25000  )

     Computing dynamical matrix for 
                    q = (  -0.5000000  -1.0000000   0.0000000 )

      8 Sym.Ops. (no q -> -q+G )


     G cutoff =  252.9949  (   4279 G-vectors)     FFT grid: ( 24, 24, 24)
     number of k points=    32

     PseudoPot. # 1 for Si read from file:
     ./UPF/Si.pz-rrkj.UPF
     MD5 check sum: 884b380b739b48e9cd334294cddc9a8d
     Pseudo is Norm-conserving, Zval =  4.0
     Generated using "atomic" code by A. Dal Corso (espresso distribution)
     Using radial grid of 1141 points,  2 beta functions with: 
                l(1) =   0
                l(2) =   1


     Atomic displacements:
     There are    3 irreducible representations

     Representation     1      2 modes -  To be done

     Representation     2      2 modes -  To be done

     Representation     3      2 modes -  To be done



     Alpha used in Ewald sum =   1.0000
     PHONON       :     34.94s CPU     36.35s WALL



     Representation #   1 modes #   1   2

     Self-consistent Calculation

      iter #   1 total cpu time :    36.5 secs   av.it.:   5.7
      thresh= 1.000E-02 alpha_mix =  0.700 |ddv_scf|^2 =  5.993E-06

      iter #   2 total cpu time :    36.7 secs   av.it.:   9.1
      thresh= 2.448E-04 alpha_mix =  0.700 |ddv_scf|^2 =  7.390E-06

      iter #   3 total cpu time :    36.8 secs   av.it.:   8.4
      thresh= 2.719E-04 alpha_mix =  0.700 |ddv_scf|^2 =  8.952E-10

      iter #   4 total cpu time :    37.0 secs   av.it.:   8.8
      thresh= 2.992E-06 alpha_mix =  0.700 |ddv_scf|^2 =  2.570E-11

      iter #   5 total cpu time :    37.2 secs   av.it.:   8.4
      thresh= 5.070E-07 alpha_mix =  0.700 |ddv_scf|^2 =  6.778E-14

      iter #   6 total cpu time :    37.3 secs   av.it.:   8.4
      thresh= 2.603E-08 alpha_mix =  0.700 |ddv_scf|^2 =  2.339E-15

      iter #   7 total cpu time :    37.5 secs   av.it.:   8.9
      thresh= 4.837E-09 alpha_mix =  0.700 |ddv_scf|^2 =  1.238E-15

      iter #   8 total cpu time :    37.7 secs   av.it.:   8.5
      thresh= 3.518E-09 alpha_mix =  0.700 |ddv_scf|^2 =  1.151E-17

     End of self-consistent calculation

     Convergence has been achieved 


     Representation #   2 modes #   3   4

     Self-consistent Calculation

      iter #   1 total cpu time :    37.8 secs   av.it.:   5.6
      thresh= 1.000E-02 alpha_mix =  0.700 |ddv_scf|^2 =  3.063E-06

      iter #   2 total cpu time :    37.9 secs   av.it.:   9.1
      thresh= 1.750E-04 alpha_mix =  0.700 |ddv_scf|^2 =  2.138E-06

      iter #   3 total cpu time :    38.1 secs   av.it.:   8.6
      thresh= 1.462E-04 alpha_mix =  0.700 |ddv_scf|^2 =  2.034E-10

      iter #   4 total cpu time :    38.3 secs   av.it.:   8.6
      thresh= 1.426E-06 alpha_mix =  0.700 |ddv_scf|^2 =  1.297E-11

      iter #   5 total cpu time :    38.4 secs   av.it.:   8.6
      thresh= 3.601E-07 alpha_mix =  0.700 |ddv_scf|^2 =  2.005E-14

      iter #   6 total cpu time :    38.6 secs   av.it.:   9.2
      thresh= 1.416E-08 alpha_mix =  0.700 |ddv_scf|^2 =  2.303E-16

      iter #   7 total cpu time :    38.8 secs   av.it.:   9.2
      thresh= 1.518E-09 alpha_mix =  0.700 |ddv_scf|^2 =  1.277E-17

     End of self-consistent calculation

     Convergence has been achieved 


     Representation #   3 modes #   5   6

     Self-consistent Calculation

      iter #   1 total cpu time :    38.9 secs   av.it.:   5.8
      thresh= 1.000E-02 alpha_mix =  0.700 |ddv_scf|^2 =  3.711E-06

      iter #   2 total cpu time :    39.1 secs   av.it.:   9.2
      thresh= 1.926E-04 alpha_mix =  0.700 |ddv_scf|^2 =  2.661E-06

      iter #   3 total cpu time :    39.3 secs   av.it.:   8.6
      thresh= 1.631E-04 alpha_mix =  0.700 |ddv_scf|^2 =  1.811E-10

      iter #   4 total cpu time :    39.5 secs   av.it.:   8.8
      thresh= 1.346E-06 alpha_mix =  0.700 |ddv_scf|^2 =  2.162E-11

      iter #   5 total cpu time :    39.7 secs   av.it.:   8.6
      thresh= 4.650E-07 alpha_mix =  0.700 |ddv_scf|^2 =  1.059E-14

      iter #   6 total cpu time :    39.8 secs   av.it.:   9.2
      thresh= 1.029E-08 alpha_mix =  0.700 |ddv_scf|^2 =  2.165E-16

      iter #   7 total cpu time :    40.0 secs   av.it.:   9.2
      thresh= 1.472E-09 alpha_mix =  0.700 |ddv_scf|^2 =  7.694E-18

     End of self-consistent calculation

     Convergence has been achieved 

     Number of q in the star =    6
     List of q in the star:
          1  -0.500000000  -1.000000000   0.000000000
          2   0.000000000   1.000000000   0.500000000
          3   0.000000000  -1.000000000  -0.500000000
          4   0.500000000   1.000000000   0.000000000
          5  -1.000000000  -0.500000000   0.000000000
          6   0.000000000  -0.500000000  -1.000000000

     Diagonalizing the dynamical matrix

     q = (   -0.500000000  -1.000000000   0.000000000 ) 

 **************************************************************************
     freq (    1) =       6.348399 [THz] =     211.759787 [cm-1]
     freq (    2) =       6.348399 [THz] =     211.759787 [cm-1]
     freq (    3) =      10.502388 [THz] =     350.321950 [cm-1]
     freq (    4) =      10.502388 [THz] =     350.321950 [cm-1]
     freq (    5) =      13.648935 [THz] =     455.279479 [cm-1]
     freq (    6) =      13.648935 [THz] =     455.279479 [cm-1]
 **************************************************************************

     Number of q in the star =    6
     List of q in the star:
          1  -0.500000000  -1.000000000   0.000000000
          2   0.000000000   1.000000000   0.500000000
          3   0.000000000  -1.000000000  -0.500000000
          4   0.500000000   1.000000000   0.000000000
          5  -1.000000000  -0.500000000   0.000000000
          6   0.000000000  -0.500000000  -1.000000000
       Writing drho for q = ( -0.500000 -1.000000  0.000000) on file "drho.1o4_-1o2_-1o4"
       Writing drho for q = (  0.000000  1.000000  0.500000) on file "drho.1o4_3o4_1o2"
       Writing drho for q = (  0.000000 -1.000000 -0.500000) on file "drho.-1o4_-3o4_-1o2"
       Writing drho for q = (  0.500000  1.000000  0.000000) on file "drho.-1o4_1o2_1o4"
       Writing drho for q = ( -1.000000 -0.500000  0.000000) on file "drho.1o2_-1o4_1o4"
       Writing drho for q = (  0.000000 -0.500000 -1.000000) on file "drho.-1o2_-3o4_-1o4"

     init_run     :      0.06s CPU      0.07s WALL (       7 calls)
     electrons    :      1.82s CPU      1.87s WALL (       7 calls)

     Called by init_run:
     wfcinit      :      0.00s CPU      0.00s WALL (       7 calls)
     potinit      :      0.00s CPU      0.00s WALL (       7 calls)
     hinit0       :      0.04s CPU      0.05s WALL (       7 calls)

     Called by electrons:
     c_bands      :      1.82s CPU      1.86s WALL (       7 calls)
     v_of_rho     :      0.00s CPU      0.00s WALL (       8 calls)

     Called by c_bands:
     init_us_2    :      0.25s CPU      0.27s WALL (    8134 calls)
     cegterg      :      1.53s CPU      1.56s WALL (     292 calls)

     Called by *egterg:
     cdiaghg      :      0.06s CPU      0.06s WALL (    3114 calls)
     h_psi        :     27.27s CPU     28.13s WALL (   75451 calls)
     g_psi        :      0.02s CPU      0.02s WALL (    2822 calls)

     Called by h_psi:
     h_psi:calbec :      1.08s CPU      1.12s WALL (   75451 calls)
     vloc_psi     :     24.91s CPU     25.70s WALL (   75451 calls)
                                        0.00s GPU  (   75451 calls)
     add_vuspsi   :      1.08s CPU      1.11s WALL (   75451 calls)

     General routines
     calbec       :      1.12s CPU      1.16s WALL (   80711 calls)
     fft          :      0.23s CPU      0.23s WALL (    1157 calls)
     ffts         :      0.06s CPU      0.07s WALL (    1164 calls)
     fftw         :     25.99s CPU     26.87s WALL (  664666 calls)
     davcio       :      0.44s CPU      0.61s WALL (   40191 calls)

     Parallel routines

     PHONON       :     38.46s CPU     40.04s WALL

     INITIALIZATION: 
     phq_setup    :      0.01s CPU      0.01s WALL (       8 calls)
     phq_init     :      0.06s CPU      0.06s WALL (       8 calls)

     phq_init     :      0.06s CPU      0.06s WALL (       8 calls)
     init_vloc    :      0.01s CPU      0.01s WALL (       8 calls)
     init_us_1    :      0.00s CPU      0.00s WALL (       8 calls)
     init_us_2    :      0.25s CPU      0.27s WALL (    8134 calls)

     DYNAMICAL MATRIX:
     dynmat0      :      0.04s CPU      0.04s WALL (       8 calls)
     dynmat_us    :      0.03s CPU      0.03s WALL (       8 calls)
     d2ionq       :      0.00s CPU      0.00s WALL (       8 calls)
     phqscf       :     35.14s CPU     36.57s WALL (       8 calls)
     dynmatrix    :      0.00s CPU      0.00s WALL (       8 calls)

     phqscf       :     35.14s CPU     36.57s WALL (       8 calls)
     solve_linter :     35.03s CPU     36.44s WALL (      32 calls)
     dfpt_kernel  :     35.27s CPU     36.69s WALL (      33 calls)
     sth_kernel   :     34.34s CPU     35.56s WALL (     261 calls)
     h_prec       :      0.04s CPU      0.04s WALL (    6104 calls)
     apply_dpot_b :      2.51s CPU      2.66s WALL (    6658 calls)
     ortho        :      0.14s CPU      0.15s WALL (    7630 calls)
     cgsolve      :     28.23s CPU     29.13s WALL (    7630 calls)
     incdrhoscf   :      3.18s CPU      3.28s WALL (    7606 calls)
                                        0.00s GPU  (    7606 calls)
     dv_of_drho   :      0.09s CPU      0.09s WALL (     375 calls)
     mix_pot      :      0.13s CPU      0.27s WALL (     261 calls)
     drhodv       :      0.10s CPU      0.12s WALL (      32 calls)
     psymdvscf    :      0.66s CPU      0.67s WALL (     261 calls)
     com_dvloc    :      0.10s CPU      0.11s WALL (    1164 calls)
                                        0.00s GPU  (    1164 calls)
     addcore      :      0.00s CPU      0.00s WALL (      48 calls)
                                        0.00s GPU  (      48 calls)

     dvqpsi_us    :      0.49s CPU      0.52s WALL (     972 calls)
                                        0.00s GPU  (     972 calls)
     dvqpsi_us_on :      0.05s CPU      0.06s WALL (     972 calls)

     add_vuspsi   :      1.08s CPU      1.11s WALL (   75451 calls)


      General routines
     calbec       :      1.12s CPU      1.16s WALL (   80711 calls)
     fft          :      0.23s CPU      0.23s WALL (    1157 calls)
     ffts         :      0.06s CPU      0.07s WALL (    1164 calls)
     fftw         :     25.99s CPU     26.87s WALL (  664666 calls)
     davcio       :      0.44s CPU      0.61s WALL (   40191 calls)
     write_rec    :      0.04s CPU      0.09s WALL (     293 calls)

      Additional routines
     ch_psi       :     27.43s CPU     28.31s WALL (   72045 calls)
     last         :      1.32s CPU      1.36s WALL (   72045 calls)
     Hesh         :      0.09s CPU      0.10s WALL (   72045 calls)
     ch_psi_all_k :      1.17s CPU      1.21s WALL (   72045 calls)
                                        0.00s GPU  (   72045 calls)
     h_psi_bgrp   :     27.31s CPU     28.17s WALL (   75451 calls)
     h_psi        :     27.27s CPU     28.13s WALL (   75451 calls)
     h_psi:pot    :     27.15s CPU     28.00s WALL (   75451 calls)
     h_psi:calbec :      1.08s CPU      1.12s WALL (   75451 calls)
     s_psi_bgrp   :      0.11s CPU      0.12s WALL (  151720 calls)


     PHONON       :     38.46s CPU     40.04s WALL


   This run was terminated on:   9: 9:13  22Aug2025            

=------------------------------------------------------------------------------=
   JOB DONE.
=------------------------------------------------------------------------------=
