--------------------------------------------------------------------------
[[24959,1],1]: A high-performance Open MPI point-to-point messaging module
was unable to find any relevant network interfaces:

Module: OpenFabrics (openib)
  Host: H388X

Another transport will be used instead, although this may result in
lower performance.

NOTE: You can disable this warning by setting the MCA parameter
btl_base_warn_component_unused to 0.
--------------------------------------------------------------------------

     Program PWSCF v.6.7GPU starts on 19Apr2021 at 10:57: 5 

     This program is part of the open-source Quantum ESPRESSO suite
     for quantum simulation of materials; please cite
         "P. Giannozzi et al., J. Phys.:Condens. Matter 21 395502 (2009);
         "P. Giannozzi et al., J. Phys.:Condens. Matter 29 465901 (2017);
         "P. Giannozzi et al., J. Chem. Phys. 152 154105 (2020);
          URL http://www.quantum-espresso.org", 
     in publications or presentations arising from this work. More details at
     http://www.quantum-espresso.org/quote

     Parallel version (MPI), running on     4 processors

     MPI processes distributed on     1 nodes
     R & G space division:  proc/nbgrp/npool/nimage =       4
     Reading input from pw.in

     Current dimensions of program PWSCF are:
     Max number of different atomic species (ntypx) = 10
     Max number of k-points (npk) =  40000
     Max angular momentum in pseudopotentials (lmaxx) =  3

     Subspace diagonalization in iterative solution of the eigenvalue problem:
     a serial algorithm will be used


     Parallelization info
     --------------------
     sticks:   dense  smooth     PW     G-vecs:    dense   smooth      PW
     Min          87      87     27                 1069     1069     186
     Max          88      88     28                 1071     1071     189
     Sum         349     349    109                 4279     4279     749

     Using Slab Decomposition



     bravais-lattice index     =            2
     lattice parameter (alat)  =      10.2000  a.u.
     unit-cell volume          =     265.3020 (a.u.)^3
     number of atoms/cell      =            2
     number of atomic types    =            1
     number of electrons       =         8.00
     number of Kohn-Sham states=            4
     kinetic-energy cutoff     =      24.0000  Ry
     charge density cutoff     =      96.0000  Ry
     scf convergence threshold =      1.0E-12
     mixing beta               =       0.7000
     number of iterations used =            8  plain     mixing
     Exchange-correlation= LDA
                           (   1   1   0   0   0   0   0)

     celldm(1)=  10.200000  celldm(2)=   0.000000  celldm(3)=   0.000000
     celldm(4)=   0.000000  celldm(5)=   0.000000  celldm(6)=   0.000000

     crystal axes: (cart. coord. in units of alat)
               a(1) = (  -0.500000   0.000000   0.500000 )  
               a(2) = (   0.000000   0.500000   0.500000 )  
               a(3) = (  -0.500000   0.500000   0.000000 )  

     reciprocal axes: (cart. coord. in units 2 pi/alat)
               b(1) = ( -1.000000 -1.000000  1.000000 )  
               b(2) = (  1.000000  1.000000  1.000000 )  
               b(3) = ( -1.000000  1.000000 -1.000000 )  


     PseudoPot. # 1 for Si read from file:
     ../Si.pz-rrkj.UPF
     MD5 check sum: 884b380b739b48e9cd334294cddc9a8d
     Pseudo is Norm-conserving, Zval =  4.0
     Generated using "atomic" code by A. Dal Corso (espresso distribution)
     Using radial grid of 1141 points,  2 beta functions with: 
                l(1) =   0
                l(2) =   1

     atomic species   valence    mass     pseudopotential
        Si             4.00    28.08600     Si( 1.00)

     48 Sym. Ops., with inversion, found (24 have fractional translation)


                                    s                        frac. trans.

      isym =  1     identity                                     

 cryst.   s( 1) = (     1          0          0      )
                  (     0          1          0      )
                  (     0          0          1      )

 cart.    s( 1) = (  1.0000000  0.0000000  0.0000000 )
                  (  0.0000000  1.0000000  0.0000000 )
                  (  0.0000000  0.0000000  1.0000000 )


      isym =  2     180 deg rotation - cart. axis [0,0,1]        

 cryst.   s( 2) = (     0          1         -1      )
                  (     1          0         -1      )
                  (     0          0         -1      )

 cart.    s( 2) = ( -1.0000000  0.0000000  0.0000000 )
                  (  0.0000000 -1.0000000  0.0000000 )
                  (  0.0000000  0.0000000  1.0000000 )


      isym =  3     180 deg rotation - cart. axis [0,1,0]        

 cryst.   s( 3) = (    -1          0          0      )
                  (    -1          0          1      )
                  (    -1          1          0      )

 cart.    s( 3) = ( -1.0000000  0.0000000  0.0000000 )
                  (  0.0000000  1.0000000  0.0000000 )
                  (  0.0000000  0.0000000 -1.0000000 )


      isym =  4     180 deg rotation - cart. axis [1,0,0]        

 cryst.   s( 4) = (     0         -1          1      )
                  (     0         -1          0      )
                  (     1         -1          0      )

 cart.    s( 4) = (  1.0000000  0.0000000  0.0000000 )
                  (  0.0000000 -1.0000000  0.0000000 )
                  (  0.0000000  0.0000000 -1.0000000 )


      isym =  5     180 deg rotation - cart. axis [1,1,0]        

 cryst.   s( 5) = (     0         -1          0      )    f =(  0.2500000 )
                  (    -1          0          0      )       (  0.2500000 )
                  (     0          0         -1      )       (  0.2500000 )

 cart.    s( 5) = (  0.0000000  1.0000000  0.0000000 )    f =( -0.2500000 )
                  (  1.0000000  0.0000000  0.0000000 )       (  0.2500000 )
                  (  0.0000000  0.0000000 -1.0000000 )       (  0.2500000 )


      isym =  6     180 deg rotation - cart. axis [1,-1,0]       

 cryst.   s( 6) = (    -1          0          1      )    f =(  0.2500000 )
                  (     0         -1          1      )       (  0.2500000 )
                  (     0          0          1      )       (  0.2500000 )

 cart.    s( 6) = (  0.0000000 -1.0000000  0.0000000 )    f =( -0.2500000 )
                  ( -1.0000000  0.0000000  0.0000000 )       (  0.2500000 )
                  (  0.0000000  0.0000000 -1.0000000 )       (  0.2500000 )


      isym =  7      90 deg rotation - cart. axis [0,0,-1]       

 cryst.   s( 7) = (     0          1          0      )    f =(  0.2500000 )
                  (     0          1         -1      )       (  0.2500000 )
                  (    -1          1          0      )       (  0.2500000 )

 cart.    s( 7) = (  0.0000000  1.0000000  0.0000000 )    f =( -0.2500000 )
                  ( -1.0000000  0.0000000  0.0000000 )       (  0.2500000 )
                  (  0.0000000  0.0000000  1.0000000 )       (  0.2500000 )


      isym =  8      90 deg rotation - cart. axis [0,0,1]        

 cryst.   s( 8) = (     1          0         -1      )    f =(  0.2500000 )
                  (     1          0          0      )       (  0.2500000 )
                  (     1         -1          0      )       (  0.2500000 )

 cart.    s( 8) = (  0.0000000 -1.0000000  0.0000000 )    f =( -0.2500000 )
                  (  1.0000000  0.0000000  0.0000000 )       (  0.2500000 )
                  (  0.0000000  0.0000000  1.0000000 )       (  0.2500000 )


      isym =  9     180 deg rotation - cart. axis [1,0,1]        

 cryst.   s( 9) = (    -1          0          0      )    f =(  0.2500000 )
                  (     0          0         -1      )       (  0.2500000 )
                  (     0         -1          0      )       (  0.2500000 )

 cart.    s( 9) = (  0.0000000  0.0000000  1.0000000 )    f =( -0.2500000 )
                  (  0.0000000 -1.0000000  0.0000000 )       (  0.2500000 )
                  (  1.0000000  0.0000000  0.0000000 )       (  0.2500000 )


      isym = 10     180 deg rotation - cart. axis [-1,0,1]       

 cryst.   s(10) = (     1          0          0      )    f =(  0.2500000 )
                  (     1         -1          0      )       (  0.2500000 )
                  (     1          0         -1      )       (  0.2500000 )

 cart.    s(10) = (  0.0000000  0.0000000 -1.0000000 )    f =( -0.2500000 )
                  (  0.0000000 -1.0000000  0.0000000 )       (  0.2500000 )
                  ( -1.0000000  0.0000000  0.0000000 )       (  0.2500000 )


      isym = 11      90 deg rotation - cart. axis [0,1,0]        

 cryst.   s(11) = (     0          1         -1      )    f =(  0.2500000 )
                  (    -1          1          0      )       (  0.2500000 )
                  (     0          1          0      )       (  0.2500000 )

 cart.    s(11) = (  0.0000000  0.0000000  1.0000000 )    f =( -0.2500000 )
                  (  0.0000000  1.0000000  0.0000000 )       (  0.2500000 )
                  ( -1.0000000  0.0000000  0.0000000 )       (  0.2500000 )


      isym = 12      90 deg rotation - cart. axis [0,-1,0]       

 cryst.   s(12) = (     0         -1          1      )    f =(  0.2500000 )
                  (     0          0          1      )       (  0.2500000 )
                  (    -1          0          1      )       (  0.2500000 )

 cart.    s(12) = (  0.0000000  0.0000000 -1.0000000 )    f =( -0.2500000 )
                  (  0.0000000  1.0000000  0.0000000 )       (  0.2500000 )
                  (  1.0000000  0.0000000  0.0000000 )       (  0.2500000 )


      isym = 13     180 deg rotation - cart. axis [0,1,1]        

 cryst.   s(13) = (    -1          1          0      )    f =(  0.2500000 )
                  (     0          1          0      )       (  0.2500000 )
                  (     0          1         -1      )       (  0.2500000 )

 cart.    s(13) = ( -1.0000000  0.0000000  0.0000000 )    f =( -0.2500000 )
                  (  0.0000000  0.0000000  1.0000000 )       (  0.2500000 )
                  (  0.0000000  1.0000000  0.0000000 )       (  0.2500000 )


      isym = 14     180 deg rotation - cart. axis [0,1,-1]       

 cryst.   s(14) = (     0          0         -1      )    f =(  0.2500000 )
                  (     0         -1          0      )       (  0.2500000 )
                  (    -1          0          0      )       (  0.2500000 )

 cart.    s(14) = ( -1.0000000  0.0000000  0.0000000 )    f =( -0.2500000 )
                  (  0.0000000  0.0000000 -1.0000000 )       (  0.2500000 )
                  (  0.0000000 -1.0000000  0.0000000 )       (  0.2500000 )


      isym = 15      90 deg rotation - cart. axis [-1,0,0]       

 cryst.   s(15) = (     0          0          1      )    f =(  0.2500000 )
                  (    -1          0          1      )       (  0.2500000 )
                  (     0         -1          1      )       (  0.2500000 )

 cart.    s(15) = (  1.0000000  0.0000000  0.0000000 )    f =( -0.2500000 )
                  (  0.0000000  0.0000000  1.0000000 )       (  0.2500000 )
                  (  0.0000000 -1.0000000  0.0000000 )       (  0.2500000 )


      isym = 16      90 deg rotation - cart. axis [1,0,0]        

 cryst.   s(16) = (     1         -1          0      )    f =(  0.2500000 )
                  (     1          0         -1      )       (  0.2500000 )
                  (     1          0          0      )       (  0.2500000 )

 cart.    s(16) = (  1.0000000  0.0000000  0.0000000 )    f =( -0.2500000 )
                  (  0.0000000  0.0000000 -1.0000000 )       (  0.2500000 )
                  (  0.0000000  1.0000000  0.0000000 )       (  0.2500000 )


      isym = 17     120 deg rotation - cart. axis [-1,-1,-1]     

 cryst.   s(17) = (    -1          0          1      )
                  (    -1          1          0      )
                  (    -1          0          0      )

 cart.    s(17) = (  0.0000000  1.0000000  0.0000000 )
                  (  0.0000000  0.0000000  1.0000000 )
                  (  1.0000000  0.0000000  0.0000000 )


      isym = 18     120 deg rotation - cart. axis [-1,1,1]       

 cryst.   s(18) = (     0          1          0      )
                  (     0          0          1      )
                  (     1          0          0      )

 cart.    s(18) = (  0.0000000 -1.0000000  0.0000000 )
                  (  0.0000000  0.0000000  1.0000000 )
                  ( -1.0000000  0.0000000  0.0000000 )


      isym = 19     120 deg rotation - cart. axis [1,1,-1]       

 cryst.   s(19) = (     1          0         -1      )
                  (     0          0         -1      )
                  (     0          1         -1      )

 cart.    s(19) = (  0.0000000  1.0000000  0.0000000 )
                  (  0.0000000  0.0000000 -1.0000000 )
                  ( -1.0000000  0.0000000  0.0000000 )


      isym = 20     120 deg rotation - cart. axis [1,-1,1]       

 cryst.   s(20) = (     0         -1          0      )
                  (     1         -1          0      )
                  (     0         -1          1      )

 cart.    s(20) = (  0.0000000 -1.0000000  0.0000000 )
                  (  0.0000000  0.0000000 -1.0000000 )
                  (  1.0000000  0.0000000  0.0000000 )


      isym = 21     120 deg rotation - cart. axis [1,1,1]        

 cryst.   s(21) = (     0          0         -1      )
                  (     0          1         -1      )
                  (     1          0         -1      )

 cart.    s(21) = (  0.0000000  0.0000000  1.0000000 )
                  (  1.0000000  0.0000000  0.0000000 )
                  (  0.0000000  1.0000000  0.0000000 )


      isym = 22     120 deg rotation - cart. axis [-1,1,-1]      

 cryst.   s(22) = (    -1          1          0      )
                  (    -1          0          0      )
                  (    -1          0          1      )

 cart.    s(22) = (  0.0000000  0.0000000  1.0000000 )
                  ( -1.0000000  0.0000000  0.0000000 )
                  (  0.0000000 -1.0000000  0.0000000 )


      isym = 23     120 deg rotation - cart. axis [1,-1,-1]      

 cryst.   s(23) = (     0          0          1      )
                  (     1          0          0      )
                  (     0          1          0      )

 cart.    s(23) = (  0.0000000  0.0000000 -1.0000000 )
                  ( -1.0000000  0.0000000  0.0000000 )
                  (  0.0000000  1.0000000  0.0000000 )


      isym = 24     120 deg rotation - cart. axis [-1,-1,1]      

 cryst.   s(24) = (     1         -1          0      )
                  (     0         -1          1      )
                  (     0         -1          0      )

 cart.    s(24) = (  0.0000000  0.0000000 -1.0000000 )
                  (  1.0000000  0.0000000  0.0000000 )
                  (  0.0000000 -1.0000000  0.0000000 )


      isym = 25     inversion                                    

 cryst.   s(25) = (    -1          0          0      )    f =(  0.2500000 )
                  (     0         -1          0      )       (  0.2500000 )
                  (     0          0         -1      )       (  0.2500000 )

 cart.    s(25) = ( -1.0000000  0.0000000  0.0000000 )    f =( -0.2500000 )
                  (  0.0000000 -1.0000000  0.0000000 )       (  0.2500000 )
                  (  0.0000000  0.0000000 -1.0000000 )       (  0.2500000 )


      isym = 26     inv. 180 deg rotation - cart. axis [0,0,1]   

 cryst.   s(26) = (     0         -1          1      )    f =(  0.2500000 )
                  (    -1          0          1      )       (  0.2500000 )
                  (     0          0          1      )       (  0.2500000 )

 cart.    s(26) = (  1.0000000  0.0000000  0.0000000 )    f =( -0.2500000 )
                  (  0.0000000  1.0000000  0.0000000 )       (  0.2500000 )
                  (  0.0000000  0.0000000 -1.0000000 )       (  0.2500000 )


      isym = 27     inv. 180 deg rotation - cart. axis [0,1,0]   

 cryst.   s(27) = (     1          0          0      )    f =(  0.2500000 )
                  (     1          0         -1      )       (  0.2500000 )
                  (     1         -1          0      )       (  0.2500000 )

 cart.    s(27) = (  1.0000000  0.0000000  0.0000000 )    f =( -0.2500000 )
                  (  0.0000000 -1.0000000  0.0000000 )       (  0.2500000 )
                  (  0.0000000  0.0000000  1.0000000 )       (  0.2500000 )


      isym = 28     inv. 180 deg rotation - cart. axis [1,0,0]   

 cryst.   s(28) = (     0          1         -1      )    f =(  0.2500000 )
                  (     0          1          0      )       (  0.2500000 )
                  (    -1          1          0      )       (  0.2500000 )

 cart.    s(28) = ( -1.0000000  0.0000000  0.0000000 )    f =( -0.2500000 )
                  (  0.0000000  1.0000000  0.0000000 )       (  0.2500000 )
                  (  0.0000000  0.0000000  1.0000000 )       (  0.2500000 )


      isym = 29     inv. 180 deg rotation - cart. axis [1,1,0]   

 cryst.   s(29) = (     0          1          0      )
                  (     1          0          0      )
                  (     0          0          1      )

 cart.    s(29) = (  0.0000000 -1.0000000  0.0000000 )
                  ( -1.0000000  0.0000000  0.0000000 )
                  (  0.0000000  0.0000000  1.0000000 )


      isym = 30     inv. 180 deg rotation - cart. axis [1,-1,0]  

 cryst.   s(30) = (     1          0         -1      )
                  (     0          1         -1      )
                  (     0          0         -1      )

 cart.    s(30) = (  0.0000000  1.0000000  0.0000000 )
                  (  1.0000000  0.0000000  0.0000000 )
                  (  0.0000000  0.0000000  1.0000000 )


      isym = 31     inv.  90 deg rotation - cart. axis [0,0,-1]  

 cryst.   s(31) = (     0         -1          0      )
                  (     0         -1          1      )
                  (     1         -1          0      )

 cart.    s(31) = (  0.0000000 -1.0000000  0.0000000 )
                  (  1.0000000  0.0000000  0.0000000 )
                  (  0.0000000  0.0000000 -1.0000000 )


      isym = 32     inv.  90 deg rotation - cart. axis [0,0,1]   

 cryst.   s(32) = (    -1          0          1      )
                  (    -1          0          0      )
                  (    -1          1          0      )

 cart.    s(32) = (  0.0000000  1.0000000  0.0000000 )
                  ( -1.0000000  0.0000000  0.0000000 )
                  (  0.0000000  0.0000000 -1.0000000 )


      isym = 33     inv. 180 deg rotation - cart. axis [1,0,1]   

 cryst.   s(33) = (     1          0          0      )
                  (     0          0          1      )
                  (     0          1          0      )

 cart.    s(33) = (  0.0000000  0.0000000 -1.0000000 )
                  (  0.0000000  1.0000000  0.0000000 )
                  ( -1.0000000  0.0000000  0.0000000 )


      isym = 34     inv. 180 deg rotation - cart. axis [-1,0,1]  

 cryst.   s(34) = (    -1          0          0      )
                  (    -1          1          0      )
                  (    -1          0          1      )

 cart.    s(34) = (  0.0000000  0.0000000  1.0000000 )
                  (  0.0000000  1.0000000  0.0000000 )
                  (  1.0000000  0.0000000  0.0000000 )


      isym = 35     inv.  90 deg rotation - cart. axis [0,1,0]   

 cryst.   s(35) = (     0         -1          1      )
                  (     1         -1          0      )
                  (     0         -1          0      )

 cart.    s(35) = (  0.0000000  0.0000000 -1.0000000 )
                  (  0.0000000 -1.0000000  0.0000000 )
                  (  1.0000000  0.0000000  0.0000000 )


      isym = 36     inv.  90 deg rotation - cart. axis [0,-1,0]  

 cryst.   s(36) = (     0          1         -1      )
                  (     0          0         -1      )
                  (     1          0         -1      )

 cart.    s(36) = (  0.0000000  0.0000000  1.0000000 )
                  (  0.0000000 -1.0000000  0.0000000 )
                  ( -1.0000000  0.0000000  0.0000000 )


      isym = 37     inv. 180 deg rotation - cart. axis [0,1,1]   

 cryst.   s(37) = (     1         -1          0      )
                  (     0         -1          0      )
                  (     0         -1          1      )

 cart.    s(37) = (  1.0000000  0.0000000  0.0000000 )
                  (  0.0000000  0.0000000 -1.0000000 )
                  (  0.0000000 -1.0000000  0.0000000 )


      isym = 38     inv. 180 deg rotation - cart. axis [0,1,-1]  

 cryst.   s(38) = (     0          0          1      )
                  (     0          1          0      )
                  (     1          0          0      )

 cart.    s(38) = (  1.0000000  0.0000000  0.0000000 )
                  (  0.0000000  0.0000000  1.0000000 )
                  (  0.0000000  1.0000000  0.0000000 )


      isym = 39     inv.  90 deg rotation - cart. axis [-1,0,0]  

 cryst.   s(39) = (     0          0         -1      )
                  (     1          0         -1      )
                  (     0          1         -1      )

 cart.    s(39) = ( -1.0000000  0.0000000  0.0000000 )
                  (  0.0000000  0.0000000 -1.0000000 )
                  (  0.0000000  1.0000000  0.0000000 )


      isym = 40     inv.  90 deg rotation - cart. axis [1,0,0]   

 cryst.   s(40) = (    -1          1          0      )
                  (    -1          0          1      )
                  (    -1          0          0      )

 cart.    s(40) = ( -1.0000000  0.0000000  0.0000000 )
                  (  0.0000000  0.0000000  1.0000000 )
                  (  0.0000000 -1.0000000  0.0000000 )


      isym = 41     inv. 120 deg rotation - cart. axis [-1,-1,-1]

 cryst.   s(41) = (     1          0         -1      )    f =(  0.2500000 )
                  (     1         -1          0      )       (  0.2500000 )
                  (     1          0          0      )       (  0.2500000 )

 cart.    s(41) = (  0.0000000 -1.0000000  0.0000000 )    f =( -0.2500000 )
                  (  0.0000000  0.0000000 -1.0000000 )       (  0.2500000 )
                  ( -1.0000000  0.0000000  0.0000000 )       (  0.2500000 )


      isym = 42     inv. 120 deg rotation - cart. axis [-1,1,1]  

 cryst.   s(42) = (     0         -1          0      )    f =(  0.2500000 )
                  (     0          0         -1      )       (  0.2500000 )
                  (    -1          0          0      )       (  0.2500000 )

 cart.    s(42) = (  0.0000000  1.0000000  0.0000000 )    f =( -0.2500000 )
                  (  0.0000000  0.0000000 -1.0000000 )       (  0.2500000 )
                  (  1.0000000  0.0000000  0.0000000 )       (  0.2500000 )


      isym = 43     inv. 120 deg rotation - cart. axis [1,1,-1]  

 cryst.   s(43) = (    -1          0          1      )    f =(  0.2500000 )
                  (     0          0          1      )       (  0.2500000 )
                  (     0         -1          1      )       (  0.2500000 )

 cart.    s(43) = (  0.0000000 -1.0000000  0.0000000 )    f =( -0.2500000 )
                  (  0.0000000  0.0000000  1.0000000 )       (  0.2500000 )
                  (  1.0000000  0.0000000  0.0000000 )       (  0.2500000 )


      isym = 44     inv. 120 deg rotation - cart. axis [1,-1,1]  

 cryst.   s(44) = (     0          1          0      )    f =(  0.2500000 )
                  (    -1          1          0      )       (  0.2500000 )
                  (     0          1         -1      )       (  0.2500000 )

 cart.    s(44) = (  0.0000000  1.0000000  0.0000000 )    f =( -0.2500000 )
                  (  0.0000000  0.0000000  1.0000000 )       (  0.2500000 )
                  ( -1.0000000  0.0000000  0.0000000 )       (  0.2500000 )


      isym = 45     inv. 120 deg rotation - cart. axis [1,1,1]   

 cryst.   s(45) = (     0          0          1      )    f =(  0.2500000 )
                  (     0         -1          1      )       (  0.2500000 )
                  (    -1          0          1      )       (  0.2500000 )

 cart.    s(45) = (  0.0000000  0.0000000 -1.0000000 )    f =( -0.2500000 )
                  ( -1.0000000  0.0000000  0.0000000 )       (  0.2500000 )
                  (  0.0000000 -1.0000000  0.0000000 )       (  0.2500000 )


      isym = 46     inv. 120 deg rotation - cart. axis [-1,1,-1] 

 cryst.   s(46) = (     1         -1          0      )    f =(  0.2500000 )
                  (     1          0          0      )       (  0.2500000 )
                  (     1          0         -1      )       (  0.2500000 )

 cart.    s(46) = (  0.0000000  0.0000000 -1.0000000 )    f =( -0.2500000 )
                  (  1.0000000  0.0000000  0.0000000 )       (  0.2500000 )
                  (  0.0000000  1.0000000  0.0000000 )       (  0.2500000 )


      isym = 47     inv. 120 deg rotation - cart. axis [1,-1,-1] 

 cryst.   s(47) = (     0          0         -1      )    f =(  0.2500000 )
                  (    -1          0          0      )       (  0.2500000 )
                  (     0         -1          0      )       (  0.2500000 )

 cart.    s(47) = (  0.0000000  0.0000000  1.0000000 )    f =( -0.2500000 )
                  (  1.0000000  0.0000000  0.0000000 )       (  0.2500000 )
                  (  0.0000000 -1.0000000  0.0000000 )       (  0.2500000 )


      isym = 48     inv. 120 deg rotation - cart. axis [-1,-1,1] 

 cryst.   s(48) = (    -1          1          0      )    f =(  0.2500000 )
                  (     0          1         -1      )       (  0.2500000 )
                  (     0          1          0      )       (  0.2500000 )

 cart.    s(48) = (  0.0000000  0.0000000  1.0000000 )    f =( -0.2500000 )
                  ( -1.0000000  0.0000000  0.0000000 )       (  0.2500000 )
                  (  0.0000000  1.0000000  0.0000000 )       (  0.2500000 )


     point group O_h (m-3m) 
     there are 10 classes
     the character table:

       E     8C3   3C2   6C4   6C2'  i     8S6   3s_h  6S4   6s_d 
A_1g   1.00  1.00  1.00  1.00  1.00  1.00  1.00  1.00  1.00  1.00
A_2g   1.00  1.00  1.00 -1.00 -1.00  1.00  1.00  1.00 -1.00 -1.00
E_g    2.00 -1.00  2.00  0.00  0.00  2.00 -1.00  2.00  0.00  0.00
T_1g   3.00  0.00 -1.00  1.00 -1.00  3.00  0.00 -1.00  1.00 -1.00
T_2g   3.00  0.00 -1.00 -1.00  1.00  3.00  0.00 -1.00 -1.00  1.00
A_1u   1.00  1.00  1.00  1.00  1.00 -1.00 -1.00 -1.00 -1.00 -1.00
A_2u   1.00  1.00  1.00 -1.00 -1.00 -1.00 -1.00 -1.00  1.00  1.00
E_u    2.00 -1.00  2.00  0.00  0.00 -2.00  1.00 -2.00  0.00  0.00
T_1u   3.00  0.00 -1.00  1.00 -1.00 -3.00  0.00  1.00 -1.00  1.00
T_2u   3.00  0.00 -1.00 -1.00  1.00 -3.00  0.00  1.00  1.00 -1.00

     the symmetry operations in each class and the name of the first element:

     E        1
          identity                                               
     8C3     17   19   20   18   24   21   22   23
          120 deg rotation - cart. axis [-1,-1,-1]               
     3C2      2    4    3
          180 deg rotation - cart. axis [0,0,1]                  
     6C4      7    8   15   16   12   11
           90 deg rotation - cart. axis [0,0,-1]                 
     6C2'     5    6   14   13   10    9
          180 deg rotation - cart. axis [1,1,0]                  
     i       25
          inversion                                              
     8S6     41   43   44   42   48   45   46   47
          inv. 120 deg rotation - cart. axis [-1,-1,-1]          
     3s_h    26   28   27
          inv. 180 deg rotation - cart. axis [0,0,1]             
     6S4     31   32   39   40   36   35
          inv.  90 deg rotation - cart. axis [0,0,-1]            
     6s_d    29   30   38   37   34   33
          inv. 180 deg rotation - cart. axis [1,1,0]             

   Cartesian axes

     site n.     atom                  positions (alat units)
         1           Si  tau(   1) = (   0.0000000   0.0000000   0.0000000  )
         2           Si  tau(   2) = (   0.2500000   0.2500000   0.2500000  )

   Crystallographic axes

     site n.     atom                  positions (cryst. coord.)
         1           Si  tau(   1) = (  0.0000000  0.0000000  0.0000000  )
         2           Si  tau(   2) = ( -0.2500000  0.7500000 -0.2500000  )

     number of k points=     8
                       cart. coord. in units 2pi/alat
        k(    1) = (   0.0000000   0.0000000   0.0000000), wk =   0.0312500
        k(    2) = (  -0.2500000   0.2500000  -0.2500000), wk =   0.2500000
        k(    3) = (   0.5000000  -0.5000000   0.5000000), wk =   0.1250000
        k(    4) = (   0.0000000   0.5000000   0.0000000), wk =   0.1875000
        k(    5) = (   0.7500000  -0.2500000   0.7500000), wk =   0.7500000
        k(    6) = (   0.5000000   0.0000000   0.5000000), wk =   0.3750000
        k(    7) = (   0.0000000  -1.0000000   0.0000000), wk =   0.0937500
        k(    8) = (  -0.5000000  -1.0000000   0.0000000), wk =   0.1875000

                       cryst. coord.
        k(    1) = (   0.0000000   0.0000000   0.0000000), wk =   0.0312500
        k(    2) = (   0.0000000   0.0000000   0.2500000), wk =   0.2500000
        k(    3) = (   0.0000000   0.0000000  -0.5000000), wk =   0.1250000
        k(    4) = (   0.0000000   0.2500000   0.2500000), wk =   0.1875000
        k(    5) = (   0.0000000   0.2500000  -0.5000000), wk =   0.7500000
        k(    6) = (   0.0000000   0.2500000  -0.2500000), wk =   0.3750000
        k(    7) = (   0.0000000  -0.5000000  -0.5000000), wk =   0.0937500
        k(    8) = (   0.2500000  -0.5000000  -0.2500000), wk =   0.1875000

     Dense  grid:     4279 G-vectors     FFT dimensions: (  24,  24,  24)

     Dynamical RAM for                 wfc:       0.01 MB

     Dynamical RAM for     wfc (w. buffer):       0.07 MB

     Dynamical RAM for           str. fact:       0.02 MB

     Dynamical RAM for           local pot:       0.00 MB

     Dynamical RAM for          nlocal pot:       0.02 MB

     Dynamical RAM for                qrad:       0.07 MB

     Dynamical RAM for          rho,v,vnew:       0.13 MB

     Dynamical RAM for               rhoin:       0.04 MB

     Dynamical RAM for            rho*nmix:       0.26 MB

     Dynamical RAM for           G-vectors:       0.07 MB

     Dynamical RAM for          h,s,v(r/c):       0.00 MB

     Dynamical RAM for          <psi|beta>:       0.00 MB

     Dynamical RAM for                 psi:       0.02 MB

     Dynamical RAM for                hpsi:       0.02 MB

     Dynamical RAM for      wfcinit/wfcrot:       0.03 MB

     Estimated static dynamical RAM per process >       0.58 MB

     Estimated max dynamical RAM per process >       0.87 MB

     Estimated total dynamical RAM >       3.49 MB

     Initial potential from superposition of free atoms

     starting charge    7.99900, renormalised to    8.00000
     Starting wfcs are    8 randomized atomic wfcs

     total cpu time spent up to now is        0.1 secs

     Self-consistent Calculation

     iteration #  1     ecut=    24.00 Ry     beta= 0.70
     Davidson diagonalization with overlap
     ethr =  1.00E-02,  avg # of iterations =  2.0

     Threshold (ethr) on eigenvalues was too large:
     Diagonalizing with lowered threshold

     Davidson diagonalization with overlap
     ethr =  7.69E-04,  avg # of iterations =  1.0

     total cpu time spent up to now is        0.1 secs

     total energy              =     -15.85015399 Ry
     estimated scf accuracy    <       0.06756727 Ry

     iteration #  2     ecut=    24.00 Ry     beta= 0.70
     Davidson diagonalization with overlap
     ethr =  8.45E-04,  avg # of iterations =  1.0

     total cpu time spent up to now is        0.2 secs

     total energy              =     -15.85342035 Ry
     estimated scf accuracy    <       0.00246995 Ry

     iteration #  3     ecut=    24.00 Ry     beta= 0.70
     Davidson diagonalization with overlap
     ethr =  3.09E-05,  avg # of iterations =  2.0

     total cpu time spent up to now is        0.2 secs

     total energy              =     -15.85382587 Ry
     estimated scf accuracy    <       0.00006557 Ry

     iteration #  4     ecut=    24.00 Ry     beta= 0.70
     Davidson diagonalization with overlap
     ethr =  8.20E-07,  avg # of iterations =  2.2

     total cpu time spent up to now is        0.2 secs

     total energy              =     -15.85384993 Ry
     estimated scf accuracy    <       0.00000048 Ry

     iteration #  5     ecut=    24.00 Ry     beta= 0.70
     Davidson diagonalization with overlap
     ethr =  5.96E-09,  avg # of iterations =  5.8

     total cpu time spent up to now is        0.3 secs

     total energy              =     -15.85385144 Ry
     estimated scf accuracy    <       0.00000017 Ry

     iteration #  6     ecut=    24.00 Ry     beta= 0.70
     Davidson diagonalization with overlap
     ethr =  2.15E-09,  avg # of iterations =  2.0

     total cpu time spent up to now is        0.3 secs

     total energy              =     -15.85385144 Ry
     estimated scf accuracy    <       0.00000015 Ry

     iteration #  7     ecut=    24.00 Ry     beta= 0.70
     Davidson diagonalization with overlap
     ethr =  1.82E-09,  avg # of iterations =  1.2

     total cpu time spent up to now is        0.4 secs

     total energy              =     -15.85385145 Ry
     estimated scf accuracy    <          5.9E-10 Ry

     iteration #  8     ecut=    24.00 Ry     beta= 0.70
     Davidson diagonalization with overlap
     ethr =  7.42E-12,  avg # of iterations =  4.4

     total cpu time spent up to now is        0.4 secs

     total energy              =     -15.85385145 Ry
     estimated scf accuracy    <          6.7E-11 Ry

     iteration #  9     ecut=    24.00 Ry     beta= 0.70
     Davidson diagonalization with overlap
     ethr =  8.39E-13,  avg # of iterations =  2.9

     total cpu time spent up to now is        0.5 secs

     total energy              =     -15.85385145 Ry
     estimated scf accuracy    <          8.9E-11 Ry

     iteration # 10     ecut=    24.00 Ry     beta= 0.70
     Davidson diagonalization with overlap
     ethr =  8.39E-13,  avg # of iterations =  2.0

     total cpu time spent up to now is        0.5 secs

     End of self-consistent calculation

          k = 0.0000 0.0000 0.0000 (   531 PWs)   bands (ev):

    -5.8298   6.2602   6.2602   6.2602

     occupation numbers 
     1.0000   1.0000   1.0000   1.0000

          k =-0.2500 0.2500-0.2500 (   531 PWs)   bands (ev):

    -5.0163   2.2803   5.4898   5.4898

     occupation numbers 
     1.0000   1.0000   1.0000   1.0000

          k = 0.5000-0.5000 0.5000 (   544 PWs)   bands (ev):

    -3.4435  -0.8222   5.0488   5.0488

     occupation numbers 
     1.0000   1.0000   1.0000   1.0000

          k = 0.0000 0.5000 0.0000 (   528 PWs)   bands (ev):

    -4.7302   2.7329   4.3342   4.3342

     occupation numbers 
     1.0000   1.0000   1.0000   1.0000

          k = 0.7500-0.2500 0.7500 (   529 PWs)   bands (ev):

    -3.0601  -0.1827   2.6418   4.0173

     occupation numbers 
     1.0000   1.0000   1.0000   1.0000

          k = 0.5000 0.0000 0.5000 (   524 PWs)   bands (ev):

    -3.7482   0.7368   2.4091   4.9135

     occupation numbers 
     1.0000   1.0000   1.0000   1.0000

          k = 0.0000-1.0000 0.0000 (   524 PWs)   bands (ev):

    -1.6182  -1.6182   3.3581   3.3581

     occupation numbers 
     1.0000   1.0000   1.0000   1.0000

          k =-0.5000-1.0000 0.0000 (   516 PWs)   bands (ev):

    -1.4420  -1.4420   2.3021   2.3021

     occupation numbers 
     1.0000   1.0000   1.0000   1.0000

     highest occupied level (ev):     6.2602

!    total energy              =     -15.85385145 Ry
     estimated scf accuracy    <          7.7E-14 Ry

     The total energy is the sum of the following terms:
     one-electron contribution =       4.77200832 Ry
     hartree contribution      =       1.10398670 Ry
     xc contribution           =      -4.83008789 Ry
     ewald contribution        =     -16.89975858 Ry

     convergence has been achieved in  10 iterations

     Writing output data file ./tmp/silicon.save/

     init_run     :      0.03s CPU      0.04s WALL (       1 calls)
     electrons    :      0.38s CPU      0.44s WALL (       1 calls)

     Called by init_run:
     wfcinit      :      0.02s CPU      0.02s WALL (       1 calls)
     wfcinit:atom :      0.00s CPU      0.00s WALL (       8 calls)
     wfcinit:wfcr :      0.01s CPU      0.02s WALL (       8 calls)
     potinit      :      0.00s CPU      0.00s WALL (       1 calls)
     hinit0       :      0.01s CPU      0.01s WALL (       1 calls)

     Called by electrons:
     c_bands      :      0.31s CPU      0.36s WALL (      11 calls)
     sum_band     :      0.06s CPU      0.07s WALL (      11 calls)
     v_of_rho     :      0.00s CPU      0.01s WALL (      11 calls)
     v_h          :      0.00s CPU      0.00s WALL (      11 calls)
     v_xc         :      0.00s CPU      0.01s WALL (      11 calls)
     mix_rho      :      0.00s CPU      0.00s WALL (      11 calls)

     Called by c_bands:
     init_us_2    :      0.00s CPU      0.00s WALL (     184 calls)
     cegterg      :      0.29s CPU      0.34s WALL (      88 calls)

     Called by sum_band:
     sum_band:wei :      0.00s CPU      0.00s WALL (      11 calls)
     sum_band:loo :      0.04s CPU      0.05s WALL (      11 calls)
     sum_band:buf :      0.00s CPU      0.00s WALL (      88 calls)
     sum_band:ini :      0.00s CPU      0.00s WALL (      88 calls)

     Called by *egterg:
     cdiaghg      :      0.01s CPU      0.01s WALL (     292 calls)
     cegterg:over :      0.01s CPU      0.02s WALL (     212 calls)
     cegterg:upda :      0.00s CPU      0.00s WALL (     212 calls)
     cegterg:last :      0.00s CPU      0.00s WALL (     196 calls)
     h_psi        :      0.26s CPU      0.30s WALL (     308 calls)
     g_psi        :      0.00s CPU      0.00s WALL (     212 calls)

     Called by h_psi:
     h_psi:calbec :      0.03s CPU      0.03s WALL (     308 calls)
     vloc_psi     :      0.23s CPU      0.27s WALL (     308 calls)
     add_vuspsi   :      0.00s CPU      0.00s WALL (     308 calls)

     General routines
     calbec       :      0.03s CPU      0.03s WALL (     308 calls)
     fft          :      0.00s CPU      0.01s WALL (      33 calls)
     ffts         :      0.00s CPU      0.00s WALL (      11 calls)
     fftw         :      0.26s CPU      0.30s WALL (    2576 calls)

     Parallel routines

     PWSCF        :      0.44s CPU      0.53s WALL


   This run was terminated on:  10:57: 5  19Apr2021            

=------------------------------------------------------------------------------=
   JOB DONE.
=------------------------------------------------------------------------------=
[H388X:28022] 3 more processes have sent help message help-mpi-btl-base.txt / btl:no-nics
[H388X:28022] Set MCA parameter "orte_base_help_aggregate" to 0 to see all help / error messages
