
     Program PHONON v.7.4.1 starts on 14May2025 at 13:29:41 

     This program is part of the open-source Quantum ESPRESSO suite
     for quantum simulation of materials; please cite
         "P. Giannozzi et al., J. Phys.:Condens. Matter 21 395502 (2009);
         "P. Giannozzi et al., J. Phys.:Condens. Matter 29 465901 (2017);
         "P. Giannozzi et al., J. Chem. Phys. 152 154105 (2020);
          URL http://www.quantum-espresso.org", 
     in publications or presentations arising from this work. More details at
     http://www.quantum-espresso.org/quote

     Parallel version (MPI), running on     4 processors

     MPI processes distributed on     1 nodes
     2811 MiB available memory on the printing compute node when the environment starts

     Reading input from ph.in

     Reading xml data from directory:

     /dev/shm/diamond.save/

     R & G space division:  proc/nbgrp/npool/nimage =       4
     Subspace diagonalization in iterative solution of the eigenvalue problem:
     a serial algorithm will be used


     IMPORTANT: XC functional enforced from input :
     Exchange-correlation= PBE
                           (   1   4   3   4   0   0   0)
     Any further DFT definition will be discarded
     Please, verify this is what you really want


     Parallelization info
     --------------------
     sticks:   dense  smooth     PW     G-vecs:    dense   smooth      PW
     Min         159     159     49                 2604     2604     457
     Max         160     160     50                 2605     2605     460
     Sum         637     637    199                10417    10417    1837

     Using Slab Decomposition

     Reading collected, re-writing distributed wavefunctions in /dev/shm/


     Dynamical matrices for ( 4, 4, 4)  uniform grid of q-points
     (   8 q-points):
       N         xq(1)         xq(2)         xq(3) 
       1   0.000000000   0.000000000   0.000000000
       2  -0.250000000   0.250000000  -0.250000000
       3   0.500000000  -0.500000000   0.500000000
       4   0.000000000   0.500000000   0.000000000
       5   0.750000000  -0.250000000   0.750000000
       6   0.500000000   0.000000000   0.500000000
       7   0.000000000  -1.000000000   0.000000000
       8  -0.500000000  -1.000000000   0.000000000

     Number and degeneracy of irreps per q-point
       N         xq(1)         xq(2)         xq(3)   N irreps
       1   0.000000000   0.000000000   0.000000000       2
        3   3
       2  -0.250000000   0.250000000  -0.250000000       4
        1   1   2   2
       3   0.500000000  -0.500000000   0.500000000       4
        1   1   2   2
       4   0.000000000   0.500000000   0.000000000       4
        1   1   2   2
       5   0.750000000  -0.250000000   0.750000000       6
     No degeneracy
       6   0.500000000   0.000000000   0.500000000       6
     No degeneracy
       7   0.000000000  -1.000000000   0.000000000       3
        2   2   2
       8  -0.500000000  -1.000000000   0.000000000       3
        2   2   2

     Calculation of q =    0.0000000   0.0000000   0.0000000

     Ph                                                                         

     bravais-lattice index     =            2
     lattice parameter (alat)  =       6.7420  a.u.
     unit-cell volume          =      76.6137 (a.u.)^3
     number of atoms/cell      =            2
     number of atomic types    =            1
     kinetic-energy cut-off    =     100.0000  Ry
     charge density cut-off    =     400.0000  Ry
     convergence threshold     =      1.0E-16
     beta                      =       0.7000
     number of iterations used =            4
     Exchange-correlation= PBE
                           (   1   4   3   4   0   0   0)


     celldm(1)=    6.74200  celldm(2)=    0.00000  celldm(3)=    0.00000
     celldm(4)=    0.00000  celldm(5)=    0.00000  celldm(6)=    0.00000

     crystal axes: (cart. coord. in units of alat)
               a(1) = ( -0.5000  0.0000  0.5000 )  
               a(2) = (  0.0000  0.5000  0.5000 )  
               a(3) = ( -0.5000  0.5000  0.0000 )  

     reciprocal axes: (cart. coord. in units 2 pi/alat)
               b(1) = ( -1.0000 -1.0000  1.0000 )  
               b(2) = (  1.0000  1.0000  1.0000 )  
               b(3) = ( -1.0000  1.0000 -1.0000 )  


     Atoms inside the unit cell: 

     Cartesian axes

     site n.  atom      mass           positions (alat units)
        1  C      12.0107   tau(    1) = (    0.00000    0.00000    0.00000  )
        2  C      12.0107   tau(    2) = (    0.25000    0.25000    0.25000  )

     Computing dynamical matrix for 
                    q = (   0.0000000   0.0000000   0.0000000 )

     49 Sym.Ops. (with q -> -q+G )


     G cutoff =  460.5510  (   2604 G-vectors)     FFT grid: ( 32, 32, 32)
     number of k points=    29

     PseudoPot. # 1 for C  read from file:
     ./C.upf
     MD5 check sum: ab5956a3aa38bbb7446c5c91c3da4a71
     Pseudo is Norm-conserving, Zval =  4.0
     Generated using ONCVPSP code by D. R. Hamann
     Using radial grid of  602 points,  4 beta functions with: 
                l(1) =   0
                l(2) =   0
                l(3) =   1
                l(4) =   1

     Mode symmetry, O_h (m-3m)  point group:


     Electric field:
     Dielectric constant
     Born effective charges in two ways 


     Atomic displacements:
     There are    2 irreducible representations

     Representation     1      3 modes -  To be done

     Representation     2      3 modes -  To be done



     Alpha used in Ewald sum =   2.8000
     PHONON       :      0.05s CPU      0.06s WALL


     Electric Fields Calculation

      iter #   1 total cpu time :     1.7 secs   av.it.:   5.8
      thresh= 1.000E-02 alpha_mix =  0.700 |ddv_scf|^2 =  1.290E-08

      iter #   2 total cpu time :     2.5 secs   av.it.:  10.3
      thresh= 1.136E-05 alpha_mix =  0.700 |ddv_scf|^2 =  5.069E-10

      iter #   3 total cpu time :     3.3 secs   av.it.:   9.9
      thresh= 2.251E-06 alpha_mix =  0.700 |ddv_scf|^2 =  3.442E-11

      iter #   4 total cpu time :     4.1 secs   av.it.:   9.8
      thresh= 5.867E-07 alpha_mix =  0.700 |ddv_scf|^2 =  8.710E-14

      iter #   5 total cpu time :     4.9 secs   av.it.:  10.6
      thresh= 2.951E-08 alpha_mix =  0.700 |ddv_scf|^2 =  1.109E-16

      iter #   6 total cpu time :     5.7 secs   av.it.:  10.0
      thresh= 1.053E-09 alpha_mix =  0.700 |ddv_scf|^2 =  6.173E-18

     End of electric fields calculation

          Dielectric constant in cartesian axis 

          (       5.873051937       0.000000000       0.000000000 )
          (       0.000000000       5.873051937      -0.000000000 )
          (       0.000000000      -0.000000000       5.873051937 )

          Effective charges (d Force / dE) in cartesian axis without acoustic sum rule applied (asr)

           atom    1  C     Mean Z*:       -0.00787
      Ex  (       -0.00787       -0.00000       -0.00000 )
      Ey  (       -0.00000       -0.00787        0.00000 )
      Ez  (        0.00000        0.00000       -0.00787 )
           atom    2  C     Mean Z*:       -0.00787
      Ex  (       -0.00787       -0.00000       -0.00000 )
      Ey  (       -0.00000       -0.00787       -0.00000 )
      Ez  (        0.00000       -0.00000       -0.00787 )

          Effective charges Sum: Mean:       -0.01574
             -0.01574       -0.00000        0.00000
             -0.00000       -0.01574       -0.00000
             -0.00000       -0.00000       -0.01574

          Effective charges (d Force / dE) in cartesian axis with asr applied: 
           atom    1  C     Mean Z*:       -0.00000
      E*x (       -0.00000        0.00000        0.00000 )
      E*y (       -0.00000       -0.00000        0.00000 )
      E*z (        0.00000        0.00000       -0.00000 )
           atom    2  C     Mean Z*:        0.00000
      E*x (        0.00000       -0.00000        0.00000 )
      E*y (        0.00000        0.00000       -0.00000 )
      E*z (        0.00000       -0.00000        0.00000 )


     Representation #   1 modes #   1   2   3

     Self-consistent Calculation

      iter #   1 total cpu time :     6.5 secs   av.it.:   6.7
      thresh= 1.000E-02 alpha_mix =  0.700 |ddv_scf|^2 =  2.519E-07

      iter #   2 total cpu time :     7.3 secs   av.it.:  10.6
      thresh= 5.019E-05 alpha_mix =  0.700 |ddv_scf|^2 =  3.168E-09

      iter #   3 total cpu time :     8.1 secs   av.it.:  10.1
      thresh= 5.629E-06 alpha_mix =  0.700 |ddv_scf|^2 =  2.004E-10

      iter #   4 total cpu time :     8.9 secs   av.it.:   9.4
      thresh= 1.416E-06 alpha_mix =  0.700 |ddv_scf|^2 =  2.485E-14

      iter #   5 total cpu time :     9.7 secs   av.it.:  10.5
      thresh= 1.576E-08 alpha_mix =  0.700 |ddv_scf|^2 =  5.212E-16

      iter #   6 total cpu time :    10.5 secs   av.it.:  10.2
      thresh= 2.283E-09 alpha_mix =  0.700 |ddv_scf|^2 =  1.003E-17

     End of self-consistent calculation

     Convergence has been achieved 


     Representation #   2 modes #   4   5   6

     Self-consistent Calculation

      iter #   1 total cpu time :    11.2 secs   av.it.:   6.7
      thresh= 1.000E-02 alpha_mix =  0.700 |ddv_scf|^2 =  1.668E-07

      iter #   2 total cpu time :    12.1 secs   av.it.:  10.6
      thresh= 4.084E-05 alpha_mix =  0.700 |ddv_scf|^2 =  2.786E-09

      iter #   3 total cpu time :    12.9 secs   av.it.:   9.0
      thresh= 5.278E-06 alpha_mix =  0.700 |ddv_scf|^2 =  2.442E-10

      iter #   4 total cpu time :    13.6 secs   av.it.:   9.4
      thresh= 1.563E-06 alpha_mix =  0.700 |ddv_scf|^2 =  2.601E-14

      iter #   5 total cpu time :    14.5 secs   av.it.:  10.5
      thresh= 1.613E-08 alpha_mix =  0.700 |ddv_scf|^2 =  3.283E-16

      iter #   6 total cpu time :    15.3 secs   av.it.:   9.9
      thresh= 1.812E-09 alpha_mix =  0.700 |ddv_scf|^2 =  5.498E-18

     End of self-consistent calculation

     Convergence has been achieved 

     Number of q in the star =    1
     List of q in the star:
          1   0.000000000   0.000000000   0.000000000

          Dielectric constant in cartesian axis 

          (       5.873051937       0.000000000       0.000000000 )
          (       0.000000000       5.873051937      -0.000000000 )
          (       0.000000000      -0.000000000       5.873051937 )

          Effective charges (d Force / dE) in cartesian axis without acoustic sum rule applied (asr)

           atom    1  C     Mean Z*:       -0.00787
      Ex  (       -0.00787       -0.00000       -0.00000 )
      Ey  (       -0.00000       -0.00787        0.00000 )
      Ez  (        0.00000        0.00000       -0.00787 )
           atom    2  C     Mean Z*:       -0.00787
      Ex  (       -0.00787       -0.00000       -0.00000 )
      Ey  (       -0.00000       -0.00787       -0.00000 )
      Ez  (        0.00000       -0.00000       -0.00787 )

          Effective charges Sum: Mean:       -0.01574
             -0.01574       -0.00000        0.00000
             -0.00000       -0.01574       -0.00000
             -0.00000       -0.00000       -0.01574

          Effective charges (d Force / dE) in cartesian axis with asr applied: 
           atom    1  C     Mean Z*:       -0.00000
      E*x (       -0.00000        0.00000        0.00000 )
      E*y (       -0.00000       -0.00000        0.00000 )
      E*z (        0.00000        0.00000       -0.00000 )
           atom    2  C     Mean Z*:        0.00000
      E*x (        0.00000       -0.00000        0.00000 )
      E*y (        0.00000        0.00000       -0.00000 )
      E*z (        0.00000       -0.00000        0.00000 )

          Effective charges (d P / du) in cartesian axis 

           atom      1C     
      Px  (       -0.00787       -0.00000       -0.00000 )
      Py  (       -0.00000       -0.00787       -0.00000 )
      Pz  (       -0.00000       -0.00000       -0.00787 )
           atom      2C     
      Px  (       -0.00787        0.00000        0.00000 )
      Py  (        0.00000       -0.00787        0.00000 )
      Pz  (        0.00000        0.00000       -0.00787 )

     Diagonalizing the dynamical matrix

     q = (    0.000000000   0.000000000   0.000000000 ) 

 **************************************************************************
     freq (    1) =       1.720140 [THz] =      57.377682 [cm-1]
     freq (    2) =       1.720140 [THz] =      57.377682 [cm-1]
     freq (    3) =       1.720140 [THz] =      57.377682 [cm-1]
     freq (    4) =      38.797158 [THz] =    1294.133893 [cm-1]
     freq (    5) =      38.797158 [THz] =    1294.133893 [cm-1]
     freq (    6) =      38.797158 [THz] =    1294.133893 [cm-1]
 **************************************************************************

     Mode symmetry, O_h (m-3m)  point group:

     freq (   1-   3) =         57.4  [cm-1]   --> T_1u G_15  G_4- I  
     freq (   4-   6) =       1294.1  [cm-1]   --> T_2g G_25' G_5+ R  

     Calculation of q =   -0.2500000   0.2500000  -0.2500000

     Parallelization info
     --------------------
     sticks:   dense  smooth     PW     G-vecs:    dense   smooth      PW
     Min         159     159     52                 2604     2604     497
     Max         160     160     54                 2605     2605     498
     Sum         637     637    211                10417    10417    1989

     Using Slab Decomposition


     Title: 
     Ph                                                                         


     bravais-lattice index     =            2
     lattice parameter (alat)  =       6.7420  a.u.
     unit-cell volume          =      76.6137 (a.u.)^3
     number of atoms/cell      =            2
     number of atomic types    =            1
     number of electrons       =         8.00
     number of Kohn-Sham states=            4
     kinetic-energy cutoff     =     100.0000  Ry
     charge density cutoff     =     400.0000  Ry
     Exchange-correlation= PBE
                           (   1   4   3   4   0   0   0)

     celldm(1)=   6.742000  celldm(2)=   0.000000  celldm(3)=   0.000000
     celldm(4)=   0.000000  celldm(5)=   0.000000  celldm(6)=   0.000000

     crystal axes: (cart. coord. in units of alat)
               a(1) = (  -0.500000   0.000000   0.500000 )  
               a(2) = (   0.000000   0.500000   0.500000 )  
               a(3) = (  -0.500000   0.500000   0.000000 )  

     reciprocal axes: (cart. coord. in units 2 pi/alat)
               b(1) = ( -1.000000 -1.000000  1.000000 )  
               b(2) = (  1.000000  1.000000  1.000000 )  
               b(3) = ( -1.000000  1.000000 -1.000000 )  


     PseudoPot. # 1 for C  read from file:
     ./C.upf
     MD5 check sum: ab5956a3aa38bbb7446c5c91c3da4a71
     Pseudo is Norm-conserving, Zval =  4.0
     Generated using ONCVPSP code by D. R. Hamann
     Using radial grid of  602 points,  4 beta functions with: 
                l(1) =   0
                l(2) =   0
                l(3) =   1
                l(4) =   1

     atomic species   valence    mass     pseudopotential
     C                 4.00    12.01070     C ( 1.00)

     48 Sym. Ops., with inversion, found



   Cartesian axes

     site n.     atom                  positions (alat units)
         1        C      tau(   1) = (   0.0000000   0.0000000   0.0000000  )
         2        C      tau(   2) = (   0.2500000   0.2500000   0.2500000  )

     number of k points=   240

     Number of k-points >= 100: set verbosity='high' to print them.

     Dense  grid:    10417 G-vectors     FFT dimensions: (  32,  32,  32)

     Estimated max dynamical RAM per process >       1.65 MB

     Estimated total dynamical RAM >       6.58 MB

     The potential is recalculated from file :
     /dev/shm/_ph0/diamond.save/charge-density

     Starting wfcs are    0 atomic +    4 random wfcs

     Band Structure Calculation
     Davidson diagonalization with overlap

     ethr =  1.25E-10,  avg # of iterations = 18.4

     total cpu time spent up to now is        3.3 secs

     End of band structure calculation

     Number of k-points >= 100: set verbosity='high' to print the bands.

     highest occupied level (ev):    13.2987

     Writing config to output data dir /dev/shm/_ph0/diamond.save/ :
     XML data file

     Ph                                                                         

     bravais-lattice index     =            2
     lattice parameter (alat)  =       6.7420  a.u.
     unit-cell volume          =      76.6137 (a.u.)^3
     number of atoms/cell      =            2
     number of atomic types    =            1
     kinetic-energy cut-off    =     100.0000  Ry
     charge density cut-off    =     400.0000  Ry
     convergence threshold     =      1.0E-16
     beta                      =       0.7000
     number of iterations used =            4
     Exchange-correlation= PBE
                           (   1   4   3   4   0   0   0)


     celldm(1)=    6.74200  celldm(2)=    0.00000  celldm(3)=    0.00000
     celldm(4)=    0.00000  celldm(5)=    0.00000  celldm(6)=    0.00000

     crystal axes: (cart. coord. in units of alat)
               a(1) = ( -0.5000  0.0000  0.5000 )  
               a(2) = (  0.0000  0.5000  0.5000 )  
               a(3) = ( -0.5000  0.5000  0.0000 )  

     reciprocal axes: (cart. coord. in units 2 pi/alat)
               b(1) = ( -1.0000 -1.0000  1.0000 )  
               b(2) = (  1.0000  1.0000  1.0000 )  
               b(3) = ( -1.0000  1.0000 -1.0000 )  


     Atoms inside the unit cell: 

     Cartesian axes

     site n.  atom      mass           positions (alat units)
        1  C      12.0107   tau(    1) = (    0.00000    0.00000    0.00000  )
        2  C      12.0107   tau(    2) = (    0.25000    0.25000    0.25000  )

     Computing dynamical matrix for 
                    q = (  -0.2500000   0.2500000  -0.2500000 )

      6 Sym.Ops. (no q -> -q+G )


     G cutoff =  460.5510  (   2604 G-vectors)     FFT grid: ( 32, 32, 32)
     number of k points=   240

     PseudoPot. # 1 for C  read from file:
     ./C.upf
     MD5 check sum: ab5956a3aa38bbb7446c5c91c3da4a71
     Pseudo is Norm-conserving, Zval =  4.0
     Generated using ONCVPSP code by D. R. Hamann
     Using radial grid of  602 points,  4 beta functions with: 
                l(1) =   0
                l(2) =   0
                l(3) =   1
                l(4) =   1

     Mode symmetry, C_3v (3m)   point group:


     Atomic displacements:
     There are    4 irreducible representations

     Representation     1      1 modes -  To be done

     Representation     2      1 modes -  To be done

     Representation     3      2 modes -  To be done

     Representation     4      2 modes -  To be done


     Message from routine init_vloc:
     Interpolation table for Vloc re-allocated

     Alpha used in Ewald sum =   2.8000
     PHONON       :     16.48s CPU     18.70s WALL



     Representation #   1 mode #   1

     Self-consistent Calculation

      iter #   1 total cpu time :    19.6 secs   av.it.:   7.5
      thresh= 1.000E-02 alpha_mix =  0.700 |ddv_scf|^2 =  1.170E-03

      iter #   2 total cpu time :    20.5 secs   av.it.:   8.6
      thresh= 3.420E-03 alpha_mix =  0.700 |ddv_scf|^2 =  4.481E-03

      iter #   3 total cpu time :    21.4 secs   av.it.:   7.5
      thresh= 6.694E-03 alpha_mix =  0.700 |ddv_scf|^2 =  1.241E-07

      iter #   4 total cpu time :    22.3 secs   av.it.:   9.9
      thresh= 3.523E-05 alpha_mix =  0.700 |ddv_scf|^2 =  2.597E-08

      iter #   5 total cpu time :    23.3 secs   av.it.:   9.4
      thresh= 1.612E-05 alpha_mix =  0.700 |ddv_scf|^2 =  7.634E-10

      iter #   6 total cpu time :    24.2 secs   av.it.:   9.4
      thresh= 2.763E-06 alpha_mix =  0.700 |ddv_scf|^2 =  1.498E-11

      iter #   7 total cpu time :    25.2 secs   av.it.:   9.2
      thresh= 3.870E-07 alpha_mix =  0.700 |ddv_scf|^2 =  1.122E-12

      iter #   8 total cpu time :    26.1 secs   av.it.:   8.6
      thresh= 1.059E-07 alpha_mix =  0.700 |ddv_scf|^2 =  8.989E-13

      iter #   9 total cpu time :    26.9 secs   av.it.:   8.4
      thresh= 9.481E-08 alpha_mix =  0.700 |ddv_scf|^2 =  2.420E-14

      iter #  10 total cpu time :    27.9 secs   av.it.:   9.1
      thresh= 1.556E-08 alpha_mix =  0.700 |ddv_scf|^2 =  4.799E-14

      iter #  11 total cpu time :    28.7 secs   av.it.:   8.2
      thresh= 2.191E-08 alpha_mix =  0.700 |ddv_scf|^2 =  1.776E-16

      iter #  12 total cpu time :    29.7 secs   av.it.:   9.6
      thresh= 1.333E-09 alpha_mix =  0.700 |ddv_scf|^2 =  2.780E-17

     End of self-consistent calculation

     Convergence has been achieved 


     Representation #   2 mode #   2

     Self-consistent Calculation

      iter #   1 total cpu time :    30.5 secs   av.it.:   7.5
      thresh= 1.000E-02 alpha_mix =  0.700 |ddv_scf|^2 =  1.170E-03

      iter #   2 total cpu time :    31.4 secs   av.it.:   8.6
      thresh= 3.420E-03 alpha_mix =  0.700 |ddv_scf|^2 =  4.481E-03

      iter #   3 total cpu time :    32.3 secs   av.it.:   7.5
      thresh= 6.694E-03 alpha_mix =  0.700 |ddv_scf|^2 =  1.241E-07

      iter #   4 total cpu time :    33.3 secs   av.it.:   9.9
      thresh= 3.523E-05 alpha_mix =  0.700 |ddv_scf|^2 =  2.594E-08

      iter #   5 total cpu time :    34.2 secs   av.it.:   9.4
      thresh= 1.611E-05 alpha_mix =  0.700 |ddv_scf|^2 =  7.620E-10

      iter #   6 total cpu time :    35.2 secs   av.it.:   9.4
      thresh= 2.760E-06 alpha_mix =  0.700 |ddv_scf|^2 =  1.503E-11

      iter #   7 total cpu time :    36.1 secs   av.it.:   9.2
      thresh= 3.877E-07 alpha_mix =  0.700 |ddv_scf|^2 =  3.513E-13

      iter #   8 total cpu time :    37.1 secs   av.it.:   9.6
      thresh= 5.927E-08 alpha_mix =  0.700 |ddv_scf|^2 =  3.055E-13

      iter #   9 total cpu time :    37.9 secs   av.it.:   7.8
      thresh= 5.527E-08 alpha_mix =  0.700 |ddv_scf|^2 =  4.565E-15

      iter #  10 total cpu time :    38.9 secs   av.it.:   9.8
      thresh= 6.756E-09 alpha_mix =  0.700 |ddv_scf|^2 =  1.371E-14

      iter #  11 total cpu time :    39.8 secs   av.it.:   8.2
      thresh= 1.171E-08 alpha_mix =  0.700 |ddv_scf|^2 =  1.576E-16

      iter #  12 total cpu time :    40.7 secs   av.it.:   9.5
      thresh= 1.255E-09 alpha_mix =  0.700 |ddv_scf|^2 =  1.906E-17

     End of self-consistent calculation

     Convergence has been achieved 


     Representation #   3 modes #   3   4

     Self-consistent Calculation

      iter #   1 total cpu time :    42.3 secs   av.it.:   6.9
      thresh= 1.000E-02 alpha_mix =  0.700 |ddv_scf|^2 =  5.754E-07

      iter #   2 total cpu time :    44.4 secs   av.it.:  10.6
      thresh= 7.586E-05 alpha_mix =  0.700 |ddv_scf|^2 =  6.503E-09

      iter #   3 total cpu time :    46.3 secs   av.it.:   9.8
      thresh= 8.064E-06 alpha_mix =  0.700 |ddv_scf|^2 =  5.832E-10

      iter #   4 total cpu time :    48.2 secs   av.it.:   9.5
      thresh= 2.415E-06 alpha_mix =  0.700 |ddv_scf|^2 =  1.027E-12

      iter #   5 total cpu time :    50.2 secs   av.it.:  10.1
      thresh= 1.014E-07 alpha_mix =  0.700 |ddv_scf|^2 =  6.849E-15

      iter #   6 total cpu time :    52.3 secs   av.it.:  10.4
      thresh= 8.276E-09 alpha_mix =  0.700 |ddv_scf|^2 =  1.260E-16

      iter #   7 total cpu time :    54.3 secs   av.it.:   9.9
      thresh= 1.122E-09 alpha_mix =  0.700 |ddv_scf|^2 =  4.593E-18

     End of self-consistent calculation

     Convergence has been achieved 


     Representation #   4 modes #   5   6

     Self-consistent Calculation

      iter #   1 total cpu time :    55.9 secs   av.it.:   7.0
      thresh= 1.000E-02 alpha_mix =  0.700 |ddv_scf|^2 =  5.753E-07

      iter #   2 total cpu time :    58.1 secs   av.it.:  10.7
      thresh= 7.585E-05 alpha_mix =  0.700 |ddv_scf|^2 =  6.502E-09

      iter #   3 total cpu time :    60.1 secs   av.it.:   9.9
      thresh= 8.063E-06 alpha_mix =  0.700 |ddv_scf|^2 =  5.830E-10

      iter #   4 total cpu time :    62.0 secs   av.it.:   9.5
      thresh= 2.415E-06 alpha_mix =  0.700 |ddv_scf|^2 =  1.025E-12

      iter #   5 total cpu time :    64.0 secs   av.it.:  10.3
      thresh= 1.012E-07 alpha_mix =  0.700 |ddv_scf|^2 =  6.851E-15

      iter #   6 total cpu time :    66.1 secs   av.it.:  10.5
      thresh= 8.277E-09 alpha_mix =  0.700 |ddv_scf|^2 =  1.263E-16

      iter #   7 total cpu time :    68.2 secs   av.it.:  10.0
      thresh= 1.124E-09 alpha_mix =  0.700 |ddv_scf|^2 =  4.600E-18

     End of self-consistent calculation

     Convergence has been achieved 

     Number of q in the star =    8
     List of q in the star:
          1  -0.250000000   0.250000000  -0.250000000
          2   0.250000000  -0.250000000  -0.250000000
          3   0.250000000  -0.250000000   0.250000000
          4   0.250000000   0.250000000   0.250000000
          5  -0.250000000  -0.250000000  -0.250000000
          6  -0.250000000  -0.250000000   0.250000000
          7  -0.250000000   0.250000000   0.250000000
          8   0.250000000   0.250000000  -0.250000000

     Diagonalizing the dynamical matrix

     q = (   -0.250000000   0.250000000  -0.250000000 ) 

 **************************************************************************
     freq (    1) =      12.355416 [THz] =     412.132308 [cm-1]
     freq (    2) =      12.355416 [THz] =     412.132308 [cm-1]
     freq (    3) =      20.668012 [THz] =     689.410684 [cm-1]
     freq (    4) =      37.154492 [THz] =    1239.340443 [cm-1]
     freq (    5) =      37.154492 [THz] =    1239.340443 [cm-1]
     freq (    6) =      39.131911 [THz] =    1305.300062 [cm-1]
 **************************************************************************

     Mode symmetry, C_3v (3m)   point group:

     freq (   1-   2) =        412.1  [cm-1]   --> E    L_3           
     freq (   3-   3) =        689.4  [cm-1]   --> A_1  L_1           
     freq (   4-   5) =       1239.3  [cm-1]   --> E    L_3           
     freq (   6-   6) =       1305.3  [cm-1]   --> A_1  L_1           

     Calculation of q =    0.5000000  -0.5000000   0.5000000

     Parallelization info
     --------------------
     sticks:   dense  smooth     PW     G-vecs:    dense   smooth      PW
     Min         159     159     55                 2604     2604     556
     Max         160     160     56                 2605     2605     558
     Sum         637     637    223                10417    10417    2229

     Using Slab Decomposition


     Title: 
     Ph                                                                         


     bravais-lattice index     =            2
     lattice parameter (alat)  =       6.7420  a.u.
     unit-cell volume          =      76.6137 (a.u.)^3
     number of atoms/cell      =            2
     number of atomic types    =            1
     number of electrons       =         8.00
     number of Kohn-Sham states=            4
     kinetic-energy cutoff     =     100.0000  Ry
     charge density cutoff     =     400.0000  Ry
     Exchange-correlation= PBE
                           (   1   4   3   4   0   0   0)

     celldm(1)=   6.742000  celldm(2)=   0.000000  celldm(3)=   0.000000
     celldm(4)=   0.000000  celldm(5)=   0.000000  celldm(6)=   0.000000

     crystal axes: (cart. coord. in units of alat)
               a(1) = (  -0.500000   0.000000   0.500000 )  
               a(2) = (   0.000000   0.500000   0.500000 )  
               a(3) = (  -0.500000   0.500000   0.000000 )  

     reciprocal axes: (cart. coord. in units 2 pi/alat)
               b(1) = ( -1.000000 -1.000000  1.000000 )  
               b(2) = (  1.000000  1.000000  1.000000 )  
               b(3) = ( -1.000000  1.000000 -1.000000 )  


     PseudoPot. # 1 for C  read from file:
     ./C.upf
     MD5 check sum: ab5956a3aa38bbb7446c5c91c3da4a71
     Pseudo is Norm-conserving, Zval =  4.0
     Generated using ONCVPSP code by D. R. Hamann
     Using radial grid of  602 points,  4 beta functions with: 
                l(1) =   0
                l(2) =   0
                l(3) =   1
                l(4) =   1

     atomic species   valence    mass     pseudopotential
     C                 4.00    12.01070     C ( 1.00)

     48 Sym. Ops., with inversion, found



   Cartesian axes

     site n.     atom                  positions (alat units)
         1        C      tau(   1) = (   0.0000000   0.0000000   0.0000000  )
         2        C      tau(   2) = (   0.2500000   0.2500000   0.2500000  )

     number of k points=   130

     Number of k-points >= 100: set verbosity='high' to print them.

     Dense  grid:    10417 G-vectors     FFT dimensions: (  32,  32,  32)

     Estimated max dynamical RAM per process >       1.65 MB

     Estimated total dynamical RAM >       6.62 MB

     The potential is recalculated from file :
     /dev/shm/_ph0/diamond.save/charge-density

     Starting wfcs are    0 atomic +    4 random wfcs

     Band Structure Calculation
     Davidson diagonalization with overlap

     ethr =  1.25E-10,  avg # of iterations = 18.5

     total cpu time spent up to now is        5.2 secs

     End of band structure calculation

     Number of k-points >= 100: set verbosity='high' to print the bands.

     highest occupied level (ev):    13.2987

     Writing config to output data dir /dev/shm/_ph0/diamond.save/ :
     XML data file

     Ph                                                                         

     bravais-lattice index     =            2
     lattice parameter (alat)  =       6.7420  a.u.
     unit-cell volume          =      76.6137 (a.u.)^3
     number of atoms/cell      =            2
     number of atomic types    =            1
     kinetic-energy cut-off    =     100.0000  Ry
     charge density cut-off    =     400.0000  Ry
     convergence threshold     =      1.0E-16
     beta                      =       0.7000
     number of iterations used =            4
     Exchange-correlation= PBE
                           (   1   4   3   4   0   0   0)


     celldm(1)=    6.74200  celldm(2)=    0.00000  celldm(3)=    0.00000
     celldm(4)=    0.00000  celldm(5)=    0.00000  celldm(6)=    0.00000

     crystal axes: (cart. coord. in units of alat)
               a(1) = ( -0.5000  0.0000  0.5000 )  
               a(2) = (  0.0000  0.5000  0.5000 )  
               a(3) = ( -0.5000  0.5000  0.0000 )  

     reciprocal axes: (cart. coord. in units 2 pi/alat)
               b(1) = ( -1.0000 -1.0000  1.0000 )  
               b(2) = (  1.0000  1.0000  1.0000 )  
               b(3) = ( -1.0000  1.0000 -1.0000 )  


     Atoms inside the unit cell: 

     Cartesian axes

     site n.  atom      mass           positions (alat units)
        1  C      12.0107   tau(    1) = (    0.00000    0.00000    0.00000  )
        2  C      12.0107   tau(    2) = (    0.25000    0.25000    0.25000  )

     Computing dynamical matrix for 
                    q = (   0.5000000  -0.5000000   0.5000000 )

     13 Sym.Ops. (with q -> -q+G )


     G cutoff =  460.5510  (   2604 G-vectors)     FFT grid: ( 32, 32, 32)
     number of k points=   130

     PseudoPot. # 1 for C  read from file:
     ./C.upf
     MD5 check sum: ab5956a3aa38bbb7446c5c91c3da4a71
     Pseudo is Norm-conserving, Zval =  4.0
     Generated using ONCVPSP code by D. R. Hamann
     Using radial grid of  602 points,  4 beta functions with: 
                l(1) =   0
                l(2) =   0
                l(3) =   1
                l(4) =   1


     Atomic displacements:
     There are    4 irreducible representations

     Representation     1      1 modes -  To be done

     Representation     2      1 modes -  To be done

     Representation     3      2 modes -  To be done

     Representation     4      2 modes -  To be done



     Alpha used in Ewald sum =   2.8000
     PHONON       :   1m 1.52s CPU   1m10.10s WALL



     Representation #   1 mode #   1

     Self-consistent Calculation

      iter #   1 total cpu time :    70.5 secs   av.it.:   6.8
      thresh= 1.000E-02 alpha_mix =  0.700 |ddv_scf|^2 =  2.398E-05

      iter #   2 total cpu time :    71.1 secs   av.it.:   9.1
      thresh= 4.897E-04 alpha_mix =  0.700 |ddv_scf|^2 =  1.003E-05

      iter #   3 total cpu time :    71.6 secs   av.it.:   8.8
      thresh= 3.166E-04 alpha_mix =  0.700 |ddv_scf|^2 =  3.109E-08

      iter #   4 total cpu time :    72.1 secs   av.it.:   8.8
      thresh= 1.763E-05 alpha_mix =  0.700 |ddv_scf|^2 =  3.695E-10

      iter #   5 total cpu time :    72.6 secs   av.it.:   8.7
      thresh= 1.922E-06 alpha_mix =  0.700 |ddv_scf|^2 =  1.493E-12

      iter #   6 total cpu time :    73.2 secs   av.it.:   8.6
      thresh= 1.222E-07 alpha_mix =  0.700 |ddv_scf|^2 =  8.209E-15

      iter #   7 total cpu time :    73.7 secs   av.it.:   9.0
      thresh= 9.060E-09 alpha_mix =  0.700 |ddv_scf|^2 =  8.770E-17

     End of self-consistent calculation

     Convergence has been achieved 


     Representation #   2 mode #   2

     Self-consistent Calculation

      iter #   1 total cpu time :    74.2 secs   av.it.:   7.3
      thresh= 1.000E-02 alpha_mix =  0.700 |ddv_scf|^2 =  2.336E-04

      iter #   2 total cpu time :    74.8 secs   av.it.:   9.4
      thresh= 1.528E-03 alpha_mix =  0.700 |ddv_scf|^2 =  2.326E-04

      iter #   3 total cpu time :    75.3 secs   av.it.:   8.7
      thresh= 1.525E-03 alpha_mix =  0.700 |ddv_scf|^2 =  5.492E-07

      iter #   4 total cpu time :    75.8 secs   av.it.:   9.2
      thresh= 7.411E-05 alpha_mix =  0.700 |ddv_scf|^2 =  2.659E-09

      iter #   5 total cpu time :    76.3 secs   av.it.:   8.9
      thresh= 5.156E-06 alpha_mix =  0.700 |ddv_scf|^2 =  2.448E-11

      iter #   6 total cpu time :    76.8 secs   av.it.:   8.6
      thresh= 4.948E-07 alpha_mix =  0.700 |ddv_scf|^2 =  2.828E-13

      iter #   7 total cpu time :    77.3 secs   av.it.:   9.4
      thresh= 5.318E-08 alpha_mix =  0.700 |ddv_scf|^2 =  2.012E-15

      iter #   8 total cpu time :    77.8 secs   av.it.:   8.8
      thresh= 4.486E-09 alpha_mix =  0.700 |ddv_scf|^2 =  5.841E-17

     End of self-consistent calculation

     Convergence has been achieved 


     Representation #   3 modes #   3   4

     Self-consistent Calculation

      iter #   1 total cpu time :    78.7 secs   av.it.:   6.9
      thresh= 1.000E-02 alpha_mix =  0.700 |ddv_scf|^2 =  1.131E-06

      iter #   2 total cpu time :    79.9 secs   av.it.:  10.5
      thresh= 1.064E-04 alpha_mix =  0.700 |ddv_scf|^2 =  7.463E-09

      iter #   3 total cpu time :    81.0 secs   av.it.:   9.8
      thresh= 8.639E-06 alpha_mix =  0.700 |ddv_scf|^2 =  6.927E-10

      iter #   4 total cpu time :    82.1 secs   av.it.:   9.2
      thresh= 2.632E-06 alpha_mix =  0.700 |ddv_scf|^2 =  2.348E-13

      iter #   5 total cpu time :    83.2 secs   av.it.:  10.5
      thresh= 4.846E-08 alpha_mix =  0.700 |ddv_scf|^2 =  1.467E-15

      iter #   6 total cpu time :    84.3 secs   av.it.:   9.5
      thresh= 3.831E-09 alpha_mix =  0.700 |ddv_scf|^2 =  7.218E-17

     End of self-consistent calculation

     Convergence has been achieved 


     Representation #   4 modes #   5   6

     Self-consistent Calculation

      iter #   1 total cpu time :    85.2 secs   av.it.:   6.7
      thresh= 1.000E-02 alpha_mix =  0.700 |ddv_scf|^2 =  2.120E-07

      iter #   2 total cpu time :    86.4 secs   av.it.:  10.5
      thresh= 4.604E-05 alpha_mix =  0.700 |ddv_scf|^2 =  6.326E-09

      iter #   3 total cpu time :    87.5 secs   av.it.:   9.7
      thresh= 7.954E-06 alpha_mix =  0.700 |ddv_scf|^2 =  3.898E-10

      iter #   4 total cpu time :    88.5 secs   av.it.:   9.2
      thresh= 1.974E-06 alpha_mix =  0.700 |ddv_scf|^2 =  9.868E-14

      iter #   5 total cpu time :    89.7 secs   av.it.:  10.5
      thresh= 3.141E-08 alpha_mix =  0.700 |ddv_scf|^2 =  1.177E-15

      iter #   6 total cpu time :    90.8 secs   av.it.:   9.6
      thresh= 3.431E-09 alpha_mix =  0.700 |ddv_scf|^2 =  3.472E-17

     End of self-consistent calculation

     Convergence has been achieved 

     Number of q in the star =    4
     List of q in the star:
          1   0.500000000  -0.500000000   0.500000000
          2   0.500000000   0.500000000   0.500000000
          3  -0.500000000   0.500000000   0.500000000
          4   0.500000000   0.500000000  -0.500000000

     Diagonalizing the dynamical matrix

     q = (    0.500000000  -0.500000000   0.500000000 ) 

 **************************************************************************
     freq (    1) =      16.516758 [THz] =     550.939734 [cm-1]
     freq (    2) =      16.516758 [THz] =     550.939734 [cm-1]
     freq (    3) =      31.269393 [THz] =    1043.034672 [cm-1]
     freq (    4) =      35.900337 [THz] =    1197.506358 [cm-1]
     freq (    5) =      35.900337 [THz] =    1197.506358 [cm-1]
     freq (    6) =      37.461602 [THz] =    1249.584549 [cm-1]
 **************************************************************************

     Calculation of q =    0.0000000   0.5000000   0.0000000

     Parallelization info
     --------------------
     sticks:   dense  smooth     PW     G-vecs:    dense   smooth      PW
     Min         159     159     52                 2604     2604     497
     Max         160     160     54                 2605     2605     498
     Sum         637     637    211                10417    10417    1989

     Using Slab Decomposition


     Title: 
     Ph                                                                         


     bravais-lattice index     =            2
     lattice parameter (alat)  =       6.7420  a.u.
     unit-cell volume          =      76.6137 (a.u.)^3
     number of atoms/cell      =            2
     number of atomic types    =            1
     number of electrons       =         8.00
     number of Kohn-Sham states=            4
     kinetic-energy cutoff     =     100.0000  Ry
     charge density cutoff     =     400.0000  Ry
     Exchange-correlation= PBE
                           (   1   4   3   4   0   0   0)

     celldm(1)=   6.742000  celldm(2)=   0.000000  celldm(3)=   0.000000
     celldm(4)=   0.000000  celldm(5)=   0.000000  celldm(6)=   0.000000

     crystal axes: (cart. coord. in units of alat)
               a(1) = (  -0.500000   0.000000   0.500000 )  
               a(2) = (   0.000000   0.500000   0.500000 )  
               a(3) = (  -0.500000   0.500000   0.000000 )  

     reciprocal axes: (cart. coord. in units 2 pi/alat)
               b(1) = ( -1.000000 -1.000000  1.000000 )  
               b(2) = (  1.000000  1.000000  1.000000 )  
               b(3) = ( -1.000000  1.000000 -1.000000 )  


     PseudoPot. # 1 for C  read from file:
     ./C.upf
     MD5 check sum: ab5956a3aa38bbb7446c5c91c3da4a71
     Pseudo is Norm-conserving, Zval =  4.0
     Generated using ONCVPSP code by D. R. Hamann
     Using radial grid of  602 points,  4 beta functions with: 
                l(1) =   0
                l(2) =   0
                l(3) =   1
                l(4) =   1

     atomic species   valence    mass     pseudopotential
     C                 4.00    12.01070     C ( 1.00)

     48 Sym. Ops., with inversion, found



   Cartesian axes

     site n.     atom                  positions (alat units)
         1        C      tau(   1) = (   0.0000000   0.0000000   0.0000000  )
         2        C      tau(   2) = (   0.2500000   0.2500000   0.2500000  )

     number of k points=   200

     Number of k-points >= 100: set verbosity='high' to print them.

     Dense  grid:    10417 G-vectors     FFT dimensions: (  32,  32,  32)

     Estimated max dynamical RAM per process >       1.65 MB

     Estimated total dynamical RAM >       6.59 MB

     The potential is recalculated from file :
     /dev/shm/_ph0/diamond.save/charge-density

     Starting wfcs are    0 atomic +    4 random wfcs

     Band Structure Calculation
     Davidson diagonalization with overlap

     ethr =  1.25E-10,  avg # of iterations = 18.3

     total cpu time spent up to now is        8.0 secs

     End of band structure calculation

     Number of k-points >= 100: set verbosity='high' to print the bands.

     highest occupied level (ev):    13.2987

     Writing config to output data dir /dev/shm/_ph0/diamond.save/ :
     XML data file

     Ph                                                                         

     bravais-lattice index     =            2
     lattice parameter (alat)  =       6.7420  a.u.
     unit-cell volume          =      76.6137 (a.u.)^3
     number of atoms/cell      =            2
     number of atomic types    =            1
     kinetic-energy cut-off    =     100.0000  Ry
     charge density cut-off    =     400.0000  Ry
     convergence threshold     =      1.0E-16
     beta                      =       0.7000
     number of iterations used =            4
     Exchange-correlation= PBE
                           (   1   4   3   4   0   0   0)


     celldm(1)=    6.74200  celldm(2)=    0.00000  celldm(3)=    0.00000
     celldm(4)=    0.00000  celldm(5)=    0.00000  celldm(6)=    0.00000

     crystal axes: (cart. coord. in units of alat)
               a(1) = ( -0.5000  0.0000  0.5000 )  
               a(2) = (  0.0000  0.5000  0.5000 )  
               a(3) = ( -0.5000  0.5000  0.0000 )  

     reciprocal axes: (cart. coord. in units 2 pi/alat)
               b(1) = ( -1.0000 -1.0000  1.0000 )  
               b(2) = (  1.0000  1.0000  1.0000 )  
               b(3) = ( -1.0000  1.0000 -1.0000 )  


     Atoms inside the unit cell: 

     Cartesian axes

     site n.  atom      mass           positions (alat units)
        1  C      12.0107   tau(    1) = (    0.00000    0.00000    0.00000  )
        2  C      12.0107   tau(    2) = (    0.25000    0.25000    0.25000  )

     Computing dynamical matrix for 
                    q = (   0.0000000   0.5000000   0.0000000 )

      8 Sym.Ops. (no q -> -q+G )


     G cutoff =  460.5510  (   2604 G-vectors)     FFT grid: ( 32, 32, 32)
     number of k points=   200

     PseudoPot. # 1 for C  read from file:
     ./C.upf
     MD5 check sum: ab5956a3aa38bbb7446c5c91c3da4a71
     Pseudo is Norm-conserving, Zval =  4.0
     Generated using ONCVPSP code by D. R. Hamann
     Using radial grid of  602 points,  4 beta functions with: 
                l(1) =   0
                l(2) =   0
                l(3) =   1
                l(4) =   1

     Mode symmetry, C_4v (4mm)  point group:


     Atomic displacements:
     There are    4 irreducible representations

     Representation     1      1 modes -  To be done

     Representation     2      1 modes -  To be done

     Representation     3      2 modes -  To be done

     Representation     4      2 modes -  To be done



     Alpha used in Ewald sum =   2.8000
     PHONON       :   1m22.33s CPU   1m33.65s WALL



     Representation #   1 mode #   1

     Self-consistent Calculation

      iter #   1 total cpu time :    94.3 secs   av.it.:   7.3
      thresh= 1.000E-02 alpha_mix =  0.700 |ddv_scf|^2 =  1.475E-03

      iter #   2 total cpu time :    95.1 secs   av.it.:   8.6
      thresh= 3.840E-03 alpha_mix =  0.700 |ddv_scf|^2 =  5.092E-03

      iter #   3 total cpu time :    95.8 secs   av.it.:   7.5
      thresh= 7.136E-03 alpha_mix =  0.700 |ddv_scf|^2 =  2.342E-07

      iter #   4 total cpu time :    96.5 secs   av.it.:   8.4
      thresh= 4.839E-05 alpha_mix =  0.700 |ddv_scf|^2 =  1.986E-09

      iter #   5 total cpu time :    97.2 secs   av.it.:   8.7
      thresh= 4.457E-06 alpha_mix =  0.700 |ddv_scf|^2 =  9.515E-11

      iter #   6 total cpu time :    97.9 secs   av.it.:   8.3
      thresh= 9.754E-07 alpha_mix =  0.700 |ddv_scf|^2 =  5.653E-14

      iter #   7 total cpu time :    98.7 secs   av.it.:   9.5
      thresh= 2.378E-08 alpha_mix =  0.700 |ddv_scf|^2 =  7.078E-16

      iter #   8 total cpu time :    99.5 secs   av.it.:   9.1
      thresh= 2.660E-09 alpha_mix =  0.700 |ddv_scf|^2 =  3.735E-16

      iter #   9 total cpu time :   100.2 secs   av.it.:   8.4
      thresh= 1.933E-09 alpha_mix =  0.700 |ddv_scf|^2 =  2.794E-16

      iter #  10 total cpu time :   101.0 secs   av.it.:   8.2
      thresh= 1.671E-09 alpha_mix =  0.700 |ddv_scf|^2 =  3.631E-17

     End of self-consistent calculation

     Convergence has been achieved 


     Representation #   2 mode #   2

     Self-consistent Calculation

      iter #   1 total cpu time :   101.6 secs   av.it.:   6.7
      thresh= 1.000E-02 alpha_mix =  0.700 |ddv_scf|^2 =  6.461E-06

      iter #   2 total cpu time :   102.4 secs   av.it.:   9.6
      thresh= 2.542E-04 alpha_mix =  0.700 |ddv_scf|^2 =  1.251E-06

      iter #   3 total cpu time :   103.2 secs   av.it.:   9.4
      thresh= 1.118E-04 alpha_mix =  0.700 |ddv_scf|^2 =  7.561E-08

      iter #   4 total cpu time :   104.0 secs   av.it.:   9.2
      thresh= 2.750E-05 alpha_mix =  0.700 |ddv_scf|^2 =  7.583E-10

      iter #   5 total cpu time :   104.8 secs   av.it.:   8.7
      thresh= 2.754E-06 alpha_mix =  0.700 |ddv_scf|^2 =  3.638E-12

      iter #   6 total cpu time :   105.5 secs   av.it.:   9.4
      thresh= 1.907E-07 alpha_mix =  0.700 |ddv_scf|^2 =  3.905E-15

      iter #   7 total cpu time :   106.3 secs   av.it.:   8.7
      thresh= 6.249E-09 alpha_mix =  0.700 |ddv_scf|^2 =  2.440E-16

      iter #   8 total cpu time :   107.0 secs   av.it.:   8.7
      thresh= 1.562E-09 alpha_mix =  0.700 |ddv_scf|^2 =  3.794E-19

     End of self-consistent calculation

     Convergence has been achieved 


     Representation #   3 modes #   3   4

     Self-consistent Calculation

      iter #   1 total cpu time :   108.3 secs   av.it.:   7.0
      thresh= 1.000E-02 alpha_mix =  0.700 |ddv_scf|^2 =  1.096E-06

      iter #   2 total cpu time :   110.1 secs   av.it.:  10.5
      thresh= 1.047E-04 alpha_mix =  0.700 |ddv_scf|^2 =  1.331E-08

      iter #   3 total cpu time :   111.8 secs   av.it.:  10.3
      thresh= 1.154E-05 alpha_mix =  0.700 |ddv_scf|^2 =  8.083E-10

      iter #   4 total cpu time :   113.4 secs   av.it.:   9.6
      thresh= 2.843E-06 alpha_mix =  0.700 |ddv_scf|^2 =  3.284E-12

      iter #   5 total cpu time :   115.1 secs   av.it.:  10.2
      thresh= 1.812E-07 alpha_mix =  0.700 |ddv_scf|^2 =  5.039E-15

      iter #   6 total cpu time :   116.8 secs   av.it.:  10.2
      thresh= 7.099E-09 alpha_mix =  0.700 |ddv_scf|^2 =  5.686E-17

     End of self-consistent calculation

     Convergence has been achieved 


     Representation #   4 modes #   5   6

     Self-consistent Calculation

      iter #   1 total cpu time :   118.2 secs   av.it.:   7.0
      thresh= 1.000E-02 alpha_mix =  0.700 |ddv_scf|^2 =  7.565E-07

      iter #   2 total cpu time :   119.9 secs   av.it.:  10.5
      thresh= 8.697E-05 alpha_mix =  0.700 |ddv_scf|^2 =  1.094E-08

      iter #   3 total cpu time :   121.6 secs   av.it.:  10.2
      thresh= 1.046E-05 alpha_mix =  0.700 |ddv_scf|^2 =  7.806E-10

      iter #   4 total cpu time :   123.3 secs   av.it.:   9.7
      thresh= 2.794E-06 alpha_mix =  0.700 |ddv_scf|^2 =  4.415E-12

      iter #   5 total cpu time :   124.9 secs   av.it.:  10.2
      thresh= 2.101E-07 alpha_mix =  0.700 |ddv_scf|^2 =  4.853E-15

      iter #   6 total cpu time :   126.6 secs   av.it.:  10.3
      thresh= 6.966E-09 alpha_mix =  0.700 |ddv_scf|^2 =  4.566E-17

     End of self-consistent calculation

     Convergence has been achieved 

     Number of q in the star =    6
     List of q in the star:
          1   0.000000000   0.500000000   0.000000000
          2   0.000000000  -0.500000000   0.000000000
          3   0.500000000   0.000000000   0.000000000
          4   0.000000000   0.000000000   0.500000000
          5   0.000000000   0.000000000  -0.500000000
          6  -0.500000000   0.000000000   0.000000000

     Diagonalizing the dynamical matrix

     q = (    0.000000000   0.500000000   0.000000000 ) 

 **************************************************************************
     freq (    1) =      15.929951 [THz] =     531.365983 [cm-1]
     freq (    2) =      15.929951 [THz] =     531.365983 [cm-1]
     freq (    3) =      22.453052 [THz] =     748.953196 [cm-1]
     freq (    4) =      35.863501 [THz] =    1196.277627 [cm-1]
     freq (    5) =      35.863501 [THz] =    1196.277627 [cm-1]
     freq (    6) =      39.395253 [THz] =    1314.084202 [cm-1]
 **************************************************************************

     Mode symmetry, C_4v (4mm)  point group:

     freq (   1-   2) =        531.4  [cm-1]   --> E    G_5 D_5       
     freq (   3-   3) =        749.0  [cm-1]   --> A_1  G_1 D_1       
     freq (   4-   5) =       1196.3  [cm-1]   --> E    G_5 D_5       
     freq (   6-   6) =       1314.1  [cm-1]   --> B_2  G_4 D_2'      

     Calculation of q =    0.7500000  -0.2500000   0.7500000

     Parallelization info
     --------------------
     sticks:   dense  smooth     PW     G-vecs:    dense   smooth      PW
     Min         159     159     60                 2604     2604     599
     Max         160     160     61                 2605     2605     600
     Sum         637     637    241                10417    10417    2397

     Using Slab Decomposition


     Title: 
     Ph                                                                         


     bravais-lattice index     =            2
     lattice parameter (alat)  =       6.7420  a.u.
     unit-cell volume          =      76.6137 (a.u.)^3
     number of atoms/cell      =            2
     number of atomic types    =            1
     number of electrons       =         8.00
     number of Kohn-Sham states=            4
     kinetic-energy cutoff     =     100.0000  Ry
     charge density cutoff     =     400.0000  Ry
     Exchange-correlation= PBE
                           (   1   4   3   4   0   0   0)

     celldm(1)=   6.742000  celldm(2)=   0.000000  celldm(3)=   0.000000
     celldm(4)=   0.000000  celldm(5)=   0.000000  celldm(6)=   0.000000

     crystal axes: (cart. coord. in units of alat)
               a(1) = (  -0.500000   0.000000   0.500000 )  
               a(2) = (   0.000000   0.500000   0.500000 )  
               a(3) = (  -0.500000   0.500000   0.000000 )  

     reciprocal axes: (cart. coord. in units 2 pi/alat)
               b(1) = ( -1.000000 -1.000000  1.000000 )  
               b(2) = (  1.000000  1.000000  1.000000 )  
               b(3) = ( -1.000000  1.000000 -1.000000 )  


     PseudoPot. # 1 for C  read from file:
     ./C.upf
     MD5 check sum: ab5956a3aa38bbb7446c5c91c3da4a71
     Pseudo is Norm-conserving, Zval =  4.0
     Generated using ONCVPSP code by D. R. Hamann
     Using radial grid of  602 points,  4 beta functions with: 
                l(1) =   0
                l(2) =   0
                l(3) =   1
                l(4) =   1

     atomic species   valence    mass     pseudopotential
     C                 4.00    12.01070     C ( 1.00)

     48 Sym. Ops., with inversion, found



   Cartesian axes

     site n.     atom                  positions (alat units)
         1        C      tau(   1) = (   0.0000000   0.0000000   0.0000000  )
         2        C      tau(   2) = (   0.2500000   0.2500000   0.2500000  )

     number of k points=   576

     Number of k-points >= 100: set verbosity='high' to print them.

     Dense  grid:    10417 G-vectors     FFT dimensions: (  32,  32,  32)

     Estimated max dynamical RAM per process >       1.66 MB

     Estimated total dynamical RAM >       6.64 MB

     The potential is recalculated from file :
     /dev/shm/_ph0/diamond.save/charge-density

     Starting wfcs are    0 atomic +    4 random wfcs

     Band Structure Calculation
     Davidson diagonalization with overlap

     ethr =  1.25E-10,  avg # of iterations = 18.2

     total cpu time spent up to now is       16.2 secs

     End of band structure calculation

     Number of k-points >= 100: set verbosity='high' to print the bands.

     highest occupied level (ev):    13.2987

     Writing config to output data dir /dev/shm/_ph0/diamond.save/ :
     XML data file

     Ph                                                                         

     bravais-lattice index     =            2
     lattice parameter (alat)  =       6.7420  a.u.
     unit-cell volume          =      76.6137 (a.u.)^3
     number of atoms/cell      =            2
     number of atomic types    =            1
     kinetic-energy cut-off    =     100.0000  Ry
     charge density cut-off    =     400.0000  Ry
     convergence threshold     =      1.0E-16
     beta                      =       0.7000
     number of iterations used =            4
     Exchange-correlation= PBE
                           (   1   4   3   4   0   0   0)


     celldm(1)=    6.74200  celldm(2)=    0.00000  celldm(3)=    0.00000
     celldm(4)=    0.00000  celldm(5)=    0.00000  celldm(6)=    0.00000

     crystal axes: (cart. coord. in units of alat)
               a(1) = ( -0.5000  0.0000  0.5000 )  
               a(2) = (  0.0000  0.5000  0.5000 )  
               a(3) = ( -0.5000  0.5000  0.0000 )  

     reciprocal axes: (cart. coord. in units 2 pi/alat)
               b(1) = ( -1.0000 -1.0000  1.0000 )  
               b(2) = (  1.0000  1.0000  1.0000 )  
               b(3) = ( -1.0000  1.0000 -1.0000 )  


     Atoms inside the unit cell: 

     Cartesian axes

     site n.  atom      mass           positions (alat units)
        1  C      12.0107   tau(    1) = (    0.00000    0.00000    0.00000  )
        2  C      12.0107   tau(    2) = (    0.25000    0.25000    0.25000  )

     Computing dynamical matrix for 
                    q = (   0.7500000  -0.2500000   0.7500000 )

      2 Sym.Ops. (no q -> -q+G )


     G cutoff =  460.5510  (   2604 G-vectors)     FFT grid: ( 32, 32, 32)
     number of k points=   576

     PseudoPot. # 1 for C  read from file:
     ./C.upf
     MD5 check sum: ab5956a3aa38bbb7446c5c91c3da4a71
     Pseudo is Norm-conserving, Zval =  4.0
     Generated using ONCVPSP code by D. R. Hamann
     Using radial grid of  602 points,  4 beta functions with: 
                l(1) =   0
                l(2) =   0
                l(3) =   1
                l(4) =   1

     Mode symmetry, C_s (m)     point group:


     Atomic displacements:
     There are    6 irreducible representations

     Representation     1      1 modes -  To be done

     Representation     2      1 modes -  To be done

     Representation     3      1 modes -  To be done

     Representation     4      1 modes -  To be done

     Representation     5      1 modes -  To be done

     Representation     6      1 modes -  To be done



     Alpha used in Ewald sum =   2.8000
     PHONON       :   1m58.81s CPU   2m15.02s WALL



     Representation #   1 mode #   1

     Self-consistent Calculation

      iter #   1 total cpu time :   137.1 secs   av.it.:   7.4
      thresh= 1.000E-02 alpha_mix =  0.700 |ddv_scf|^2 =  8.535E-05

      iter #   2 total cpu time :   139.6 secs   av.it.:   9.8
      thresh= 9.239E-04 alpha_mix =  0.700 |ddv_scf|^2 =  7.624E-05

      iter #   3 total cpu time :   141.9 secs   av.it.:   9.1
      thresh= 8.732E-04 alpha_mix =  0.700 |ddv_scf|^2 =  4.182E-07

      iter #   4 total cpu time :   144.2 secs   av.it.:   9.5
      thresh= 6.467E-05 alpha_mix =  0.700 |ddv_scf|^2 =  1.139E-08

      iter #   5 total cpu time :   146.7 secs   av.it.:   9.8
      thresh= 1.067E-05 alpha_mix =  0.700 |ddv_scf|^2 =  1.529E-09

      iter #   6 total cpu time :   149.1 secs   av.it.:   9.7
      thresh= 3.910E-06 alpha_mix =  0.700 |ddv_scf|^2 =  1.580E-11

      iter #   7 total cpu time :   151.4 secs   av.it.:   9.4
      thresh= 3.975E-07 alpha_mix =  0.700 |ddv_scf|^2 =  1.404E-13

      iter #   8 total cpu time :   153.9 secs   av.it.:   9.7
      thresh= 3.747E-08 alpha_mix =  0.700 |ddv_scf|^2 =  1.385E-14

      iter #   9 total cpu time :   156.3 secs   av.it.:   9.8
      thresh= 1.177E-08 alpha_mix =  0.700 |ddv_scf|^2 =  7.556E-15

      iter #  10 total cpu time :   158.6 secs   av.it.:   9.1
      thresh= 8.692E-09 alpha_mix =  0.700 |ddv_scf|^2 =  1.173E-16

      iter #  11 total cpu time :   161.1 secs   av.it.:   9.9
      thresh= 1.083E-09 alpha_mix =  0.700 |ddv_scf|^2 =  3.709E-17

     End of self-consistent calculation

     Convergence has been achieved 


     Representation #   2 mode #   2

     Self-consistent Calculation

      iter #   1 total cpu time :   163.2 secs   av.it.:   7.3
      thresh= 1.000E-02 alpha_mix =  0.700 |ddv_scf|^2 =  5.247E-05

      iter #   2 total cpu time :   165.6 secs   av.it.:   9.8
      thresh= 7.244E-04 alpha_mix =  0.700 |ddv_scf|^2 =  4.402E-05

      iter #   3 total cpu time :   167.9 secs   av.it.:   9.0
      thresh= 6.635E-04 alpha_mix =  0.700 |ddv_scf|^2 =  3.403E-07

      iter #   4 total cpu time :   170.2 secs   av.it.:   9.5
      thresh= 5.833E-05 alpha_mix =  0.700 |ddv_scf|^2 =  4.393E-09

      iter #   5 total cpu time :   172.7 secs   av.it.:   9.9
      thresh= 6.628E-06 alpha_mix =  0.700 |ddv_scf|^2 =  1.156E-09

      iter #   6 total cpu time :   175.1 secs   av.it.:   9.6
      thresh= 3.399E-06 alpha_mix =  0.700 |ddv_scf|^2 =  3.952E-11

      iter #   7 total cpu time :   177.5 secs   av.it.:   9.7
      thresh= 6.286E-07 alpha_mix =  0.700 |ddv_scf|^2 =  1.632E-13

      iter #   8 total cpu time :   179.9 secs   av.it.:   9.6
      thresh= 4.039E-08 alpha_mix =  0.700 |ddv_scf|^2 =  6.053E-15

      iter #   9 total cpu time :   182.4 secs   av.it.:   9.9
      thresh= 7.780E-09 alpha_mix =  0.700 |ddv_scf|^2 =  1.123E-15

      iter #  10 total cpu time :   184.8 secs   av.it.:   9.5
      thresh= 3.350E-09 alpha_mix =  0.700 |ddv_scf|^2 =  2.931E-16

      iter #  11 total cpu time :   187.1 secs   av.it.:   9.2
      thresh= 1.712E-09 alpha_mix =  0.700 |ddv_scf|^2 =  7.075E-18

     End of self-consistent calculation

     Convergence has been achieved 


     Representation #   3 mode #   3

     Self-consistent Calculation

      iter #   1 total cpu time :   189.1 secs   av.it.:   7.4
      thresh= 1.000E-02 alpha_mix =  0.700 |ddv_scf|^2 =  5.229E-05

      iter #   2 total cpu time :   191.6 secs   av.it.:   9.9
      thresh= 7.231E-04 alpha_mix =  0.700 |ddv_scf|^2 =  4.364E-05

      iter #   3 total cpu time :   193.9 secs   av.it.:   9.3
      thresh= 6.606E-04 alpha_mix =  0.700 |ddv_scf|^2 =  3.835E-07

      iter #   4 total cpu time :   196.3 secs   av.it.:   9.4
      thresh= 6.193E-05 alpha_mix =  0.700 |ddv_scf|^2 =  1.454E-08

      iter #   5 total cpu time :   198.7 secs   av.it.:   9.7
      thresh= 1.206E-05 alpha_mix =  0.700 |ddv_scf|^2 =  1.254E-09

      iter #   6 total cpu time :   201.1 secs   av.it.:   9.6
      thresh= 3.541E-06 alpha_mix =  0.700 |ddv_scf|^2 =  2.611E-11

      iter #   7 total cpu time :   203.5 secs   av.it.:   9.5
      thresh= 5.110E-07 alpha_mix =  0.700 |ddv_scf|^2 =  1.531E-13

      iter #   8 total cpu time :   205.9 secs   av.it.:   9.8
      thresh= 3.912E-08 alpha_mix =  0.700 |ddv_scf|^2 =  1.287E-14

      iter #   9 total cpu time :   208.3 secs   av.it.:   9.7
      thresh= 1.134E-08 alpha_mix =  0.700 |ddv_scf|^2 =  3.987E-15

      iter #  10 total cpu time :   210.7 secs   av.it.:   9.2
      thresh= 6.314E-09 alpha_mix =  0.700 |ddv_scf|^2 =  9.057E-17

     End of self-consistent calculation

     Convergence has been achieved 


     Representation #   4 mode #   4

     Self-consistent Calculation

      iter #   1 total cpu time :   212.7 secs   av.it.:   7.2
      thresh= 1.000E-02 alpha_mix =  0.700 |ddv_scf|^2 =  1.942E-05

      iter #   2 total cpu time :   215.3 secs   av.it.:  10.0
      thresh= 4.406E-04 alpha_mix =  0.700 |ddv_scf|^2 =  1.143E-05

      iter #   3 total cpu time :   217.6 secs   av.it.:   9.3
      thresh= 3.381E-04 alpha_mix =  0.700 |ddv_scf|^2 =  3.701E-07

      iter #   4 total cpu time :   220.0 secs   av.it.:   9.2
      thresh= 6.084E-05 alpha_mix =  0.700 |ddv_scf|^2 =  8.796E-09

      iter #   5 total cpu time :   222.4 secs   av.it.:   9.8
      thresh= 9.379E-06 alpha_mix =  0.700 |ddv_scf|^2 =  1.414E-09

      iter #   6 total cpu time :   224.9 secs   av.it.:   9.7
      thresh= 3.761E-06 alpha_mix =  0.700 |ddv_scf|^2 =  5.690E-11

      iter #   7 total cpu time :   227.3 secs   av.it.:   9.7
      thresh= 7.543E-07 alpha_mix =  0.700 |ddv_scf|^2 =  2.556E-13

      iter #   8 total cpu time :   229.8 secs   av.it.:   9.8
      thresh= 5.056E-08 alpha_mix =  0.700 |ddv_scf|^2 =  3.313E-15

      iter #   9 total cpu time :   232.3 secs   av.it.:   9.8
      thresh= 5.756E-09 alpha_mix =  0.700 |ddv_scf|^2 =  7.933E-16

      iter #  10 total cpu time :   234.6 secs   av.it.:   9.4
      thresh= 2.816E-09 alpha_mix =  0.700 |ddv_scf|^2 =  1.486E-16

      iter #  11 total cpu time :   237.0 secs   av.it.:   9.4
      thresh= 1.219E-09 alpha_mix =  0.700 |ddv_scf|^2 =  2.210E-17

     End of self-consistent calculation

     Convergence has been achieved 


     Representation #   5 mode #   5

     Self-consistent Calculation

      iter #   1 total cpu time :   239.0 secs   av.it.:   6.9
      thresh= 1.000E-02 alpha_mix =  0.700 |ddv_scf|^2 =  4.295E-06

      iter #   2 total cpu time :   241.4 secs   av.it.:   9.6
      thresh= 2.072E-04 alpha_mix =  0.700 |ddv_scf|^2 =  6.873E-08

      iter #   3 total cpu time :   243.8 secs   av.it.:   9.5
      thresh= 2.622E-05 alpha_mix =  0.700 |ddv_scf|^2 =  3.457E-09

      iter #   4 total cpu time :   246.0 secs   av.it.:   9.0
      thresh= 5.879E-06 alpha_mix =  0.700 |ddv_scf|^2 =  1.334E-11

      iter #   5 total cpu time :   248.4 secs   av.it.:   9.6
      thresh= 3.653E-07 alpha_mix =  0.700 |ddv_scf|^2 =  2.721E-14

      iter #   6 total cpu time :   250.9 secs   av.it.:   9.6
      thresh= 1.649E-08 alpha_mix =  0.700 |ddv_scf|^2 =  4.193E-16

      iter #   7 total cpu time :   253.1 secs   av.it.:   8.9
      thresh= 2.048E-09 alpha_mix =  0.700 |ddv_scf|^2 =  1.830E-17

     End of self-consistent calculation

     Convergence has been achieved 


     Representation #   6 mode #   6

     Self-consistent Calculation

      iter #   1 total cpu time :   255.1 secs   av.it.:   6.9
      thresh= 1.000E-02 alpha_mix =  0.700 |ddv_scf|^2 =  4.295E-06

      iter #   2 total cpu time :   257.5 secs   av.it.:   9.6
      thresh= 2.072E-04 alpha_mix =  0.700 |ddv_scf|^2 =  6.874E-08

      iter #   3 total cpu time :   259.8 secs   av.it.:   9.5
      thresh= 2.622E-05 alpha_mix =  0.700 |ddv_scf|^2 =  3.457E-09

      iter #   4 total cpu time :   262.1 secs   av.it.:   9.0
      thresh= 5.880E-06 alpha_mix =  0.700 |ddv_scf|^2 =  1.334E-11

      iter #   5 total cpu time :   264.5 secs   av.it.:   9.6
      thresh= 3.653E-07 alpha_mix =  0.700 |ddv_scf|^2 =  2.721E-14

      iter #   6 total cpu time :   266.9 secs   av.it.:   9.6
      thresh= 1.649E-08 alpha_mix =  0.700 |ddv_scf|^2 =  4.191E-16

      iter #   7 total cpu time :   269.2 secs   av.it.:   8.9
      thresh= 2.047E-09 alpha_mix =  0.700 |ddv_scf|^2 =  1.830E-17

     End of self-consistent calculation

     Convergence has been achieved 

     Number of q in the star =   24
     List of q in the star:
          1   0.750000000  -0.250000000   0.750000000
          2   0.750000000  -0.250000000  -0.750000000
          3  -0.750000000  -0.250000000  -0.750000000
          4  -0.750000000  -0.250000000   0.750000000
          5  -0.750000000   0.250000000  -0.750000000
          6  -0.250000000   0.750000000  -0.750000000
          7  -0.750000000   0.750000000  -0.250000000
          8   0.750000000   0.250000000   0.750000000
          9  -0.750000000   0.250000000   0.750000000
         10   0.750000000   0.250000000  -0.750000000
         11  -0.750000000   0.750000000   0.250000000
         12  -0.250000000   0.750000000   0.750000000
         13   0.250000000   0.750000000  -0.750000000
         14  -0.250000000  -0.750000000  -0.750000000
         15   0.750000000   0.750000000  -0.250000000
         16   0.750000000  -0.750000000   0.250000000
         17  -0.750000000  -0.750000000  -0.250000000
         18   0.250000000  -0.750000000   0.750000000
         19  -0.750000000  -0.750000000   0.250000000
         20   0.250000000   0.750000000   0.750000000
         21  -0.250000000  -0.750000000   0.750000000
         22   0.750000000   0.750000000   0.250000000
         23   0.250000000  -0.750000000  -0.750000000
         24   0.750000000  -0.750000000  -0.250000000

     Diagonalizing the dynamical matrix

     q = (    0.750000000  -0.250000000   0.750000000 ) 

 **************************************************************************
     freq (    1) =      20.445583 [THz] =     681.991245 [cm-1]
     freq (    2) =      24.574104 [THz] =     819.703869 [cm-1]
     freq (    3) =      28.895185 [THz] =     963.839624 [cm-1]
     freq (    4) =      33.742010 [THz] =    1125.512292 [cm-1]
     freq (    5) =      34.434069 [THz] =    1148.596913 [cm-1]
     freq (    6) =      37.004208 [THz] =    1234.327505 [cm-1]
 **************************************************************************

     Mode symmetry, C_s (m)     point group:

     freq (   1-   1) =        682.0  [cm-1]   --> A''                
     freq (   2-   2) =        819.7  [cm-1]   --> A'                 
     freq (   3-   3) =        963.8  [cm-1]   --> A'                 
     freq (   4-   4) =       1125.5  [cm-1]   --> A''                
     freq (   5-   5) =       1148.6  [cm-1]   --> A'                 
     freq (   6-   6) =       1234.3  [cm-1]   --> A'                 

     Calculation of q =    0.5000000   0.0000000   0.5000000

     Parallelization info
     --------------------
     sticks:   dense  smooth     PW     G-vecs:    dense   smooth      PW
     Min         159     159     52                 2604     2604     526
     Max         160     160     53                 2605     2605     529
     Sum         637     637    211                10417    10417    2109

     Using Slab Decomposition


     Title: 
     Ph                                                                         


     bravais-lattice index     =            2
     lattice parameter (alat)  =       6.7420  a.u.
     unit-cell volume          =      76.6137 (a.u.)^3
     number of atoms/cell      =            2
     number of atomic types    =            1
     number of electrons       =         8.00
     number of Kohn-Sham states=            4
     kinetic-energy cutoff     =     100.0000  Ry
     charge density cutoff     =     400.0000  Ry
     Exchange-correlation= PBE
                           (   1   4   3   4   0   0   0)

     celldm(1)=   6.742000  celldm(2)=   0.000000  celldm(3)=   0.000000
     celldm(4)=   0.000000  celldm(5)=   0.000000  celldm(6)=   0.000000

     crystal axes: (cart. coord. in units of alat)
               a(1) = (  -0.500000   0.000000   0.500000 )  
               a(2) = (   0.000000   0.500000   0.500000 )  
               a(3) = (  -0.500000   0.500000   0.000000 )  

     reciprocal axes: (cart. coord. in units 2 pi/alat)
               b(1) = ( -1.000000 -1.000000  1.000000 )  
               b(2) = (  1.000000  1.000000  1.000000 )  
               b(3) = ( -1.000000  1.000000 -1.000000 )  


     PseudoPot. # 1 for C  read from file:
     ./C.upf
     MD5 check sum: ab5956a3aa38bbb7446c5c91c3da4a71
     Pseudo is Norm-conserving, Zval =  4.0
     Generated using ONCVPSP code by D. R. Hamann
     Using radial grid of  602 points,  4 beta functions with: 
                l(1) =   0
                l(2) =   0
                l(3) =   1
                l(4) =   1

     atomic species   valence    mass     pseudopotential
     C                 4.00    12.01070     C ( 1.00)

     48 Sym. Ops., with inversion, found



   Cartesian axes

     site n.     atom                  positions (alat units)
         1        C      tau(   1) = (   0.0000000   0.0000000   0.0000000  )
         2        C      tau(   2) = (   0.2500000   0.2500000   0.2500000  )

     number of k points=   328

     Number of k-points >= 100: set verbosity='high' to print them.

     Dense  grid:    10417 G-vectors     FFT dimensions: (  32,  32,  32)

     Estimated max dynamical RAM per process >       1.65 MB

     Estimated total dynamical RAM >       6.60 MB

     The potential is recalculated from file :
     /dev/shm/_ph0/diamond.save/charge-density

     Starting wfcs are    0 atomic +    4 random wfcs

     Band Structure Calculation
     Davidson diagonalization with overlap

     ethr =  1.25E-10,  avg # of iterations = 18.2

     total cpu time spent up to now is       20.7 secs

     End of band structure calculation

     Number of k-points >= 100: set verbosity='high' to print the bands.

     highest occupied level (ev):    13.2987

     Writing config to output data dir /dev/shm/_ph0/diamond.save/ :
     XML data file

     Ph                                                                         

     bravais-lattice index     =            2
     lattice parameter (alat)  =       6.7420  a.u.
     unit-cell volume          =      76.6137 (a.u.)^3
     number of atoms/cell      =            2
     number of atomic types    =            1
     kinetic-energy cut-off    =     100.0000  Ry
     charge density cut-off    =     400.0000  Ry
     convergence threshold     =      1.0E-16
     beta                      =       0.7000
     number of iterations used =            4
     Exchange-correlation= PBE
                           (   1   4   3   4   0   0   0)


     celldm(1)=    6.74200  celldm(2)=    0.00000  celldm(3)=    0.00000
     celldm(4)=    0.00000  celldm(5)=    0.00000  celldm(6)=    0.00000

     crystal axes: (cart. coord. in units of alat)
               a(1) = ( -0.5000  0.0000  0.5000 )  
               a(2) = (  0.0000  0.5000  0.5000 )  
               a(3) = ( -0.5000  0.5000  0.0000 )  

     reciprocal axes: (cart. coord. in units 2 pi/alat)
               b(1) = ( -1.0000 -1.0000  1.0000 )  
               b(2) = (  1.0000  1.0000  1.0000 )  
               b(3) = ( -1.0000  1.0000 -1.0000 )  


     Atoms inside the unit cell: 

     Cartesian axes

     site n.  atom      mass           positions (alat units)
        1  C      12.0107   tau(    1) = (    0.00000    0.00000    0.00000  )
        2  C      12.0107   tau(    2) = (    0.25000    0.25000    0.25000  )

     Computing dynamical matrix for 
                    q = (   0.5000000   0.0000000   0.5000000 )

      4 Sym.Ops. (no q -> -q+G )


     G cutoff =  460.5510  (   2604 G-vectors)     FFT grid: ( 32, 32, 32)
     number of k points=   328

     PseudoPot. # 1 for C  read from file:
     ./C.upf
     MD5 check sum: ab5956a3aa38bbb7446c5c91c3da4a71
     Pseudo is Norm-conserving, Zval =  4.0
     Generated using ONCVPSP code by D. R. Hamann
     Using radial grid of  602 points,  4 beta functions with: 
                l(1) =   0
                l(2) =   0
                l(3) =   1
                l(4) =   1

     Mode symmetry, C_2v (mm2)  point group:


     Atomic displacements:
     There are    6 irreducible representations

     Representation     1      1 modes -  To be done

     Representation     2      1 modes -  To be done

     Representation     3      1 modes -  To be done

     Representation     4      1 modes -  To be done

     Representation     5      1 modes -  To be done

     Representation     6      1 modes -  To be done



     Alpha used in Ewald sum =   2.8000
     PHONON       :   4m 1.19s CPU   4m33.74s WALL



     Representation #   1 mode #   1

     Self-consistent Calculation

      iter #   1 total cpu time :   274.9 secs   av.it.:   7.4
      thresh= 1.000E-02 alpha_mix =  0.700 |ddv_scf|^2 =  2.334E-04

      iter #   2 total cpu time :   276.2 secs   av.it.:   9.3
      thresh= 1.528E-03 alpha_mix =  0.700 |ddv_scf|^2 =  3.471E-04

      iter #   3 total cpu time :   277.4 secs   av.it.:   8.5
      thresh= 1.863E-03 alpha_mix =  0.700 |ddv_scf|^2 =  2.041E-07

      iter #   4 total cpu time :   278.7 secs   av.it.:   9.2
      thresh= 4.518E-05 alpha_mix =  0.700 |ddv_scf|^2 =  3.907E-09

      iter #   5 total cpu time :   279.9 secs   av.it.:   9.1
      thresh= 6.251E-06 alpha_mix =  0.700 |ddv_scf|^2 =  9.414E-11

      iter #   6 total cpu time :   281.1 secs   av.it.:   8.9
      thresh= 9.703E-07 alpha_mix =  0.700 |ddv_scf|^2 =  3.311E-13

      iter #   7 total cpu time :   282.3 secs   av.it.:   9.1
      thresh= 5.754E-08 alpha_mix =  0.700 |ddv_scf|^2 =  9.114E-15

      iter #   8 total cpu time :   283.6 secs   av.it.:   9.5
      thresh= 9.547E-09 alpha_mix =  0.700 |ddv_scf|^2 =  8.444E-15

      iter #   9 total cpu time :   284.9 secs   av.it.:   8.7
      thresh= 9.189E-09 alpha_mix =  0.700 |ddv_scf|^2 =  2.595E-16

      iter #  10 total cpu time :   286.1 secs   av.it.:   9.1
      thresh= 1.611E-09 alpha_mix =  0.700 |ddv_scf|^2 =  7.696E-18

     End of self-consistent calculation

     Convergence has been achieved 


     Representation #   2 mode #   2

     Self-consistent Calculation

      iter #   1 total cpu time :   287.2 secs   av.it.:   7.3
      thresh= 1.000E-02 alpha_mix =  0.700 |ddv_scf|^2 =  1.248E-04

      iter #   2 total cpu time :   288.5 secs   av.it.:   9.5
      thresh= 1.117E-03 alpha_mix =  0.700 |ddv_scf|^2 =  1.703E-04

      iter #   3 total cpu time :   289.8 secs   av.it.:   8.5
      thresh= 1.305E-03 alpha_mix =  0.700 |ddv_scf|^2 =  4.432E-07

      iter #   4 total cpu time :   291.0 secs   av.it.:   9.3
      thresh= 6.657E-05 alpha_mix =  0.700 |ddv_scf|^2 =  4.036E-09

      iter #   5 total cpu time :   292.3 secs   av.it.:   9.2
      thresh= 6.353E-06 alpha_mix =  0.700 |ddv_scf|^2 =  1.027E-10

      iter #   6 total cpu time :   293.6 secs   av.it.:   8.8
      thresh= 1.013E-06 alpha_mix =  0.700 |ddv_scf|^2 =  1.811E-13

      iter #   7 total cpu time :   294.9 secs   av.it.:   9.3
      thresh= 4.255E-08 alpha_mix =  0.700 |ddv_scf|^2 =  3.577E-15

      iter #   8 total cpu time :   296.2 secs   av.it.:   9.6
      thresh= 5.981E-09 alpha_mix =  0.700 |ddv_scf|^2 =  8.039E-16

      iter #   9 total cpu time :   297.4 secs   av.it.:   8.8
      thresh= 2.835E-09 alpha_mix =  0.700 |ddv_scf|^2 =  1.505E-16

      iter #  10 total cpu time :   298.7 secs   av.it.:   8.9
      thresh= 1.227E-09 alpha_mix =  0.700 |ddv_scf|^2 =  5.244E-18

     End of self-consistent calculation

     Convergence has been achieved 


     Representation #   3 mode #   3

     Self-consistent Calculation

      iter #   1 total cpu time :   299.7 secs   av.it.:   6.7
      thresh= 1.000E-02 alpha_mix =  0.700 |ddv_scf|^2 =  4.953E-06

      iter #   2 total cpu time :   301.0 secs   av.it.:   9.5
      thresh= 2.226E-04 alpha_mix =  0.700 |ddv_scf|^2 =  3.781E-08

      iter #   3 total cpu time :   302.3 secs   av.it.:   9.0
      thresh= 1.944E-05 alpha_mix =  0.700 |ddv_scf|^2 =  2.964E-09

      iter #   4 total cpu time :   303.5 secs   av.it.:   8.5
      thresh= 5.444E-06 alpha_mix =  0.700 |ddv_scf|^2 =  3.881E-12

      iter #   5 total cpu time :   304.8 secs   av.it.:   9.4
      thresh= 1.970E-07 alpha_mix =  0.700 |ddv_scf|^2 =  1.061E-14

      iter #   6 total cpu time :   306.0 secs   av.it.:   8.8
      thresh= 1.030E-08 alpha_mix =  0.700 |ddv_scf|^2 =  3.227E-16

      iter #   7 total cpu time :   307.2 secs   av.it.:   8.8
      thresh= 1.796E-09 alpha_mix =  0.700 |ddv_scf|^2 =  1.592E-18

     End of self-consistent calculation

     Convergence has been achieved 


     Representation #   4 mode #   4

     Self-consistent Calculation

      iter #   1 total cpu time :   308.3 secs   av.it.:   6.5
      thresh= 1.000E-02 alpha_mix =  0.700 |ddv_scf|^2 =  7.192E-07

      iter #   2 total cpu time :   309.6 secs   av.it.:   9.4
      thresh= 8.481E-05 alpha_mix =  0.700 |ddv_scf|^2 =  2.604E-08

      iter #   3 total cpu time :   310.8 secs   av.it.:   8.8
      thresh= 1.614E-05 alpha_mix =  0.700 |ddv_scf|^2 =  1.269E-09

      iter #   4 total cpu time :   312.0 secs   av.it.:   8.1
      thresh= 3.562E-06 alpha_mix =  0.700 |ddv_scf|^2 =  1.454E-13

      iter #   5 total cpu time :   313.2 secs   av.it.:   8.9
      thresh= 3.813E-08 alpha_mix =  0.700 |ddv_scf|^2 =  3.187E-15

      iter #   6 total cpu time :   314.4 secs   av.it.:   8.5
      thresh= 5.645E-09 alpha_mix =  0.700 |ddv_scf|^2 =  2.565E-17

     End of self-consistent calculation

     Convergence has been achieved 


     Representation #   5 mode #   5

     Self-consistent Calculation

      iter #   1 total cpu time :   315.5 secs   av.it.:   7.0
      thresh= 1.000E-02 alpha_mix =  0.700 |ddv_scf|^2 =  1.724E-05

      iter #   2 total cpu time :   316.8 secs   av.it.:   9.8
      thresh= 4.152E-04 alpha_mix =  0.700 |ddv_scf|^2 =  5.690E-06

      iter #   3 total cpu time :   318.2 secs   av.it.:   9.5
      thresh= 2.385E-04 alpha_mix =  0.700 |ddv_scf|^2 =  1.116E-07

      iter #   4 total cpu time :   319.5 secs   av.it.:   9.5
      thresh= 3.340E-05 alpha_mix =  0.700 |ddv_scf|^2 =  1.150E-09

      iter #   5 total cpu time :   320.7 secs   av.it.:   9.1
      thresh= 3.391E-06 alpha_mix =  0.700 |ddv_scf|^2 =  2.598E-12

      iter #   6 total cpu time :   322.0 secs   av.it.:   9.6
      thresh= 1.612E-07 alpha_mix =  0.700 |ddv_scf|^2 =  1.115E-14

      iter #   7 total cpu time :   323.3 secs   av.it.:   9.3
      thresh= 1.056E-08 alpha_mix =  0.700 |ddv_scf|^2 =  7.936E-16

      iter #   8 total cpu time :   324.7 secs   av.it.:   9.7
      thresh= 2.817E-09 alpha_mix =  0.700 |ddv_scf|^2 =  6.346E-17

     End of self-consistent calculation

     Convergence has been achieved 


     Representation #   6 mode #   6

     Self-consistent Calculation

      iter #   1 total cpu time :   325.7 secs   av.it.:   6.9
      thresh= 1.000E-02 alpha_mix =  0.700 |ddv_scf|^2 =  5.500E-06

      iter #   2 total cpu time :   327.1 secs   av.it.:   9.9
      thresh= 2.345E-04 alpha_mix =  0.700 |ddv_scf|^2 =  1.827E-06

      iter #   3 total cpu time :   328.4 secs   av.it.:   9.5
      thresh= 1.352E-04 alpha_mix =  0.700 |ddv_scf|^2 =  4.503E-08

      iter #   4 total cpu time :   329.7 secs   av.it.:   9.6
      thresh= 2.122E-05 alpha_mix =  0.700 |ddv_scf|^2 =  9.488E-10

      iter #   5 total cpu time :   331.0 secs   av.it.:   9.3
      thresh= 3.080E-06 alpha_mix =  0.700 |ddv_scf|^2 =  3.713E-12

      iter #   6 total cpu time :   332.2 secs   av.it.:   9.5
      thresh= 1.927E-07 alpha_mix =  0.700 |ddv_scf|^2 =  1.120E-14

      iter #   7 total cpu time :   333.6 secs   av.it.:   9.5
      thresh= 1.058E-08 alpha_mix =  0.700 |ddv_scf|^2 =  7.497E-16

      iter #   8 total cpu time :   334.9 secs   av.it.:   9.5
      thresh= 2.738E-09 alpha_mix =  0.700 |ddv_scf|^2 =  2.746E-17

     End of self-consistent calculation

     Convergence has been achieved 

     Number of q in the star =   12
     List of q in the star:
          1   0.500000000   0.000000000   0.500000000
          2  -0.500000000   0.000000000   0.500000000
          3  -0.500000000   0.000000000  -0.500000000
          4   0.500000000   0.000000000  -0.500000000
          5   0.000000000   0.500000000  -0.500000000
          6  -0.500000000   0.500000000   0.000000000
          7   0.000000000   0.500000000   0.500000000
          8   0.000000000  -0.500000000  -0.500000000
          9   0.500000000   0.500000000   0.000000000
         10   0.500000000  -0.500000000   0.000000000
         11  -0.500000000  -0.500000000   0.000000000
         12   0.000000000  -0.500000000   0.500000000

     Diagonalizing the dynamical matrix

     q = (    0.500000000   0.000000000   0.500000000 ) 

 **************************************************************************
     freq (    1) =      18.602373 [THz] =     620.508366 [cm-1]
[...]
                l(1) =   0
                l(2) =   0
                l(3) =   1
                l(4) =   1


     Atomic displacements:
     There are    3 irreducible representations

     Representation     1      2 modes -  To be done

     Representation     2      2 modes -  To be done

     Representation     3      2 modes -  To be done



     Alpha used in Ewald sum =   2.8000
     PHONON       :   4m56.95s CPU   5m36.66s WALL



     Representation #   1 modes #   1   2

     Self-consistent Calculation

      iter #   1 total cpu time :   337.5 secs   av.it.:   7.0
      thresh= 1.000E-02 alpha_mix =  0.700 |ddv_scf|^2 =  2.984E-06

      iter #   2 total cpu time :   338.5 secs   av.it.:  10.3
      thresh= 1.727E-04 alpha_mix =  0.700 |ddv_scf|^2 =  7.307E-08

      iter #   3 total cpu time :   339.5 secs   av.it.:  10.2
      thresh= 2.703E-05 alpha_mix =  0.700 |ddv_scf|^2 =  1.019E-09

      iter #   4 total cpu time :   340.5 secs   av.it.:   9.2
      thresh= 3.192E-06 alpha_mix =  0.700 |ddv_scf|^2 =  4.139E-13

      iter #   5 total cpu time :   341.6 secs   av.it.:  10.3
      thresh= 6.433E-08 alpha_mix =  0.700 |ddv_scf|^2 =  5.572E-15

      iter #   6 total cpu time :   342.6 secs   av.it.:  10.1
      thresh= 7.465E-09 alpha_mix =  0.700 |ddv_scf|^2 =  1.624E-16

      iter #   7 total cpu time :   343.6 secs   av.it.:   9.5
      thresh= 1.274E-09 alpha_mix =  0.700 |ddv_scf|^2 =  1.781E-19

     End of self-consistent calculation

     Convergence has been achieved 


     Representation #   2 modes #   3   4

     Self-consistent Calculation

      iter #   1 total cpu time :   344.5 secs   av.it.:   7.2
      thresh= 1.000E-02 alpha_mix =  0.700 |ddv_scf|^2 =  1.480E-05

      iter #   2 total cpu time :   345.5 secs   av.it.:  10.3
      thresh= 3.847E-04 alpha_mix =  0.700 |ddv_scf|^2 =  8.732E-06

      iter #   3 total cpu time :   346.5 secs   av.it.:   9.9
      thresh= 2.955E-04 alpha_mix =  0.700 |ddv_scf|^2 =  3.678E-08

      iter #   4 total cpu time :   347.6 secs   av.it.:  10.0
      thresh= 1.918E-05 alpha_mix =  0.700 |ddv_scf|^2 =  3.735E-10

      iter #   5 total cpu time :   348.6 secs   av.it.:   9.6
      thresh= 1.933E-06 alpha_mix =  0.700 |ddv_scf|^2 =  2.717E-12

      iter #   6 total cpu time :   349.6 secs   av.it.:   9.9
      thresh= 1.648E-07 alpha_mix =  0.700 |ddv_scf|^2 =  3.958E-14

      iter #   7 total cpu time :   350.7 secs   av.it.:  10.0
      thresh= 1.989E-08 alpha_mix =  0.700 |ddv_scf|^2 =  1.534E-16

      iter #   8 total cpu time :   351.8 secs   av.it.:   9.7
      thresh= 1.239E-09 alpha_mix =  0.700 |ddv_scf|^2 =  3.150E-19

     End of self-consistent calculation

     Convergence has been achieved 


     Representation #   3 modes #   5   6

     Self-consistent Calculation

      iter #   1 total cpu time :   352.6 secs   av.it.:   6.5
      thresh= 1.000E-02 alpha_mix =  0.700 |ddv_scf|^2 =  8.072E-08

      iter #   2 total cpu time :   353.7 secs   av.it.:  10.1
      thresh= 2.841E-05 alpha_mix =  0.700 |ddv_scf|^2 =  6.275E-09

      iter #   3 total cpu time :   354.8 secs   av.it.:   9.9
      thresh= 7.922E-06 alpha_mix =  0.700 |ddv_scf|^2 =  7.834E-11

      iter #   4 total cpu time :   355.8 secs   av.it.:  10.0
      thresh= 8.851E-07 alpha_mix =  0.700 |ddv_scf|^2 =  2.255E-14

      iter #   5 total cpu time :   356.8 secs   av.it.:   9.6
      thresh= 1.502E-08 alpha_mix =  0.700 |ddv_scf|^2 =  6.584E-16

      iter #   6 total cpu time :   357.8 secs   av.it.:   9.4
      thresh= 2.566E-09 alpha_mix =  0.700 |ddv_scf|^2 =  2.782E-18

     End of self-consistent calculation

     Convergence has been achieved 

     Number of q in the star =    3
     List of q in the star:
          1   0.000000000  -1.000000000   0.000000000
          2  -1.000000000   0.000000000   0.000000000
          3   0.000000000   0.000000000  -1.000000000

     Diagonalizing the dynamical matrix

     q = (    0.000000000  -1.000000000   0.000000000 ) 

 **************************************************************************
     freq (    1) =      23.555119 [THz] =     785.714210 [cm-1]
     freq (    2) =      23.555119 [THz] =     785.714210 [cm-1]
     freq (    3) =      31.799979 [THz] =    1060.733108 [cm-1]
     freq (    4) =      31.799979 [THz] =    1060.733108 [cm-1]
     freq (    5) =      35.831182 [THz] =    1195.199573 [cm-1]
     freq (    6) =      35.831182 [THz] =    1195.199573 [cm-1]
 **************************************************************************

     Calculation of q =   -0.5000000  -1.0000000   0.0000000

     Parallelization info
     --------------------
     sticks:   dense  smooth     PW     G-vecs:    dense   smooth      PW
     Min         159     159     58                 2604     2604     569
     Max         160     160     59                 2605     2605     570
     Sum         637     637    235                10417    10417    2277

     Using Slab Decomposition


     Title: 
     Ph                                                                         


     bravais-lattice index     =            2
     lattice parameter (alat)  =       6.7420  a.u.
     unit-cell volume          =      76.6137 (a.u.)^3
     number of atoms/cell      =            2
     number of atomic types    =            1
     number of electrons       =         8.00
     number of Kohn-Sham states=            4
     kinetic-energy cutoff     =     100.0000  Ry
     charge density cutoff     =     400.0000  Ry
     Exchange-correlation= PBE
                           (   1   4   3   4   0   0   0)

     celldm(1)=   6.742000  celldm(2)=   0.000000  celldm(3)=   0.000000
     celldm(4)=   0.000000  celldm(5)=   0.000000  celldm(6)=   0.000000

     crystal axes: (cart. coord. in units of alat)
               a(1) = (  -0.500000   0.000000   0.500000 )  
               a(2) = (   0.000000   0.500000   0.500000 )  
               a(3) = (  -0.500000   0.500000   0.000000 )  

     reciprocal axes: (cart. coord. in units 2 pi/alat)
               b(1) = ( -1.000000 -1.000000  1.000000 )  
               b(2) = (  1.000000  1.000000  1.000000 )  
               b(3) = ( -1.000000  1.000000 -1.000000 )  


     PseudoPot. # 1 for C  read from file:
     ./C.upf
     MD5 check sum: ab5956a3aa38bbb7446c5c91c3da4a71
     Pseudo is Norm-conserving, Zval =  4.0
     Generated using ONCVPSP code by D. R. Hamann
     Using radial grid of  602 points,  4 beta functions with: 
                l(1) =   0
                l(2) =   0
                l(3) =   1
                l(4) =   1

     atomic species   valence    mass     pseudopotential
     C                 4.00    12.01070     C ( 1.00)

     48 Sym. Ops., with inversion, found



   Cartesian axes

     site n.     atom                  positions (alat units)
         1        C      tau(   1) = (   0.0000000   0.0000000   0.0000000  )
         2        C      tau(   2) = (   0.2500000   0.2500000   0.2500000  )

     number of k points=   174

     Number of k-points >= 100: set verbosity='high' to print them.

     Dense  grid:    10417 G-vectors     FFT dimensions: (  32,  32,  32)

     Estimated max dynamical RAM per process >       1.66 MB

     Estimated total dynamical RAM >       6.64 MB

     The potential is recalculated from file :
     /dev/shm/_ph0/diamond.save/charge-density

     Starting wfcs are    0 atomic +    4 random wfcs

     Band Structure Calculation
     Davidson diagonalization with overlap

     ethr =  1.25E-10,  avg # of iterations = 18.1

     total cpu time spent up to now is       24.9 secs

     End of band structure calculation

     Number of k-points >= 100: set verbosity='high' to print the bands.

     highest occupied level (ev):    13.2987

     Writing config to output data dir /dev/shm/_ph0/diamond.save/ :
     XML data file

     Ph                                                                         

     bravais-lattice index     =            2
     lattice parameter (alat)  =       6.7420  a.u.
     unit-cell volume          =      76.6137 (a.u.)^3
     number of atoms/cell      =            2
     number of atomic types    =            1
     kinetic-energy cut-off    =     100.0000  Ry
     charge density cut-off    =     400.0000  Ry
     convergence threshold     =      1.0E-16
     beta                      =       0.7000
     number of iterations used =            4
     Exchange-correlation= PBE
                           (   1   4   3   4   0   0   0)


     celldm(1)=    6.74200  celldm(2)=    0.00000  celldm(3)=    0.00000
     celldm(4)=    0.00000  celldm(5)=    0.00000  celldm(6)=    0.00000

     crystal axes: (cart. coord. in units of alat)
               a(1) = ( -0.5000  0.0000  0.5000 )  
               a(2) = (  0.0000  0.5000  0.5000 )  
               a(3) = ( -0.5000  0.5000  0.0000 )  

     reciprocal axes: (cart. coord. in units 2 pi/alat)
               b(1) = ( -1.0000 -1.0000  1.0000 )  
               b(2) = (  1.0000  1.0000  1.0000 )  
               b(3) = ( -1.0000  1.0000 -1.0000 )  


     Atoms inside the unit cell: 

     Cartesian axes

     site n.  atom      mass           positions (alat units)
        1  C      12.0107   tau(    1) = (    0.00000    0.00000    0.00000  )
        2  C      12.0107   tau(    2) = (    0.25000    0.25000    0.25000  )

     Computing dynamical matrix for 
                    q = (  -0.5000000  -1.0000000   0.0000000 )

      8 Sym.Ops. (no q -> -q+G )


     G cutoff =  460.5510  (   2604 G-vectors)     FFT grid: ( 32, 32, 32)
     number of k points=   174

     PseudoPot. # 1 for C  read from file:
     ./C.upf
     MD5 check sum: ab5956a3aa38bbb7446c5c91c3da4a71
     Pseudo is Norm-conserving, Zval =  4.0
     Generated using ONCVPSP code by D. R. Hamann
     Using radial grid of  602 points,  4 beta functions with: 
                l(1) =   0
                l(2) =   0
                l(3) =   1
                l(4) =   1


     Atomic displacements:
     There are    3 irreducible representations

     Representation     1      2 modes -  To be done

     Representation     2      2 modes -  To be done

     Representation     3      2 modes -  To be done



     Alpha used in Ewald sum =   2.8000
     PHONON       :   5m17.86s CPU   6m 0.34s WALL



     Representation #   1 modes #   1   2

     Self-consistent Calculation

      iter #   1 total cpu time :   361.6 secs   av.it.:   7.3
      thresh= 1.000E-02 alpha_mix =  0.700 |ddv_scf|^2 =  8.417E-06

      iter #   2 total cpu time :   363.2 secs   av.it.:  10.7
      thresh= 2.901E-04 alpha_mix =  0.700 |ddv_scf|^2 =  4.779E-06

      iter #   3 total cpu time :   364.7 secs   av.it.:  10.2
      thresh= 2.186E-04 alpha_mix =  0.700 |ddv_scf|^2 =  2.064E-08

      iter #   4 total cpu time :   366.3 secs   av.it.:  10.2
      thresh= 1.437E-05 alpha_mix =  0.700 |ddv_scf|^2 =  1.981E-10

      iter #   5 total cpu time :   367.8 secs   av.it.:   9.8
      thresh= 1.408E-06 alpha_mix =  0.700 |ddv_scf|^2 =  1.560E-13

      iter #   6 total cpu time :   369.4 secs   av.it.:  10.1
      thresh= 3.950E-08 alpha_mix =  0.700 |ddv_scf|^2 =  2.849E-15

      iter #   7 total cpu time :   371.0 secs   av.it.:  10.2
      thresh= 5.338E-09 alpha_mix =  0.700 |ddv_scf|^2 =  4.450E-17

     End of self-consistent calculation

     Convergence has been achieved 


     Representation #   2 modes #   3   4

     Self-consistent Calculation

      iter #   1 total cpu time :   372.2 secs   av.it.:   7.1
      thresh= 1.000E-02 alpha_mix =  0.700 |ddv_scf|^2 =  3.381E-06

      iter #   2 total cpu time :   373.8 secs   av.it.:  10.6
      thresh= 1.839E-04 alpha_mix =  0.700 |ddv_scf|^2 =  3.223E-07

      iter #   3 total cpu time :   375.4 secs   av.it.:  10.2
      thresh= 5.677E-05 alpha_mix =  0.700 |ddv_scf|^2 =  1.392E-09

      iter #   4 total cpu time :   376.9 secs   av.it.:   9.9
      thresh= 3.731E-06 alpha_mix =  0.700 |ddv_scf|^2 =  8.484E-12

      iter #   5 total cpu time :   378.4 secs   av.it.:  10.3
      thresh= 2.913E-07 alpha_mix =  0.700 |ddv_scf|^2 =  2.830E-14

      iter #   6 total cpu time :   380.0 secs   av.it.:  10.5
      thresh= 1.682E-08 alpha_mix =  0.700 |ddv_scf|^2 =  4.477E-16

      iter #   7 total cpu time :   381.5 secs   av.it.:  10.0
      thresh= 2.116E-09 alpha_mix =  0.700 |ddv_scf|^2 =  2.130E-17

     End of self-consistent calculation

     Convergence has been achieved 


     Representation #   3 modes #   5   6

     Self-consistent Calculation

      iter #   1 total cpu time :   382.7 secs   av.it.:   7.2
      thresh= 1.000E-02 alpha_mix =  0.700 |ddv_scf|^2 =  4.011E-06

      iter #   2 total cpu time :   384.3 secs   av.it.:  10.6
      thresh= 2.003E-04 alpha_mix =  0.700 |ddv_scf|^2 =  3.938E-07

      iter #   3 total cpu time :   385.9 secs   av.it.:  10.3
      thresh= 6.276E-05 alpha_mix =  0.700 |ddv_scf|^2 =  1.443E-09

      iter #   4 total cpu time :   387.4 secs   av.it.:   9.9
      thresh= 3.798E-06 alpha_mix =  0.700 |ddv_scf|^2 =  2.681E-11

      iter #   5 total cpu time :   388.8 secs   av.it.:   9.9
      thresh= 5.177E-07 alpha_mix =  0.700 |ddv_scf|^2 =  1.674E-14

      iter #   6 total cpu time :   390.3 secs   av.it.:  10.4
      thresh= 1.294E-08 alpha_mix =  0.700 |ddv_scf|^2 =  5.568E-16

      iter #   7 total cpu time :   391.9 secs   av.it.:  10.1
      thresh= 2.360E-09 alpha_mix =  0.700 |ddv_scf|^2 =  1.355E-17

     End of self-consistent calculation

     Convergence has been achieved 

     Number of q in the star =    6
     List of q in the star:
          1  -0.500000000  -1.000000000   0.000000000
          2   0.000000000   1.000000000   0.500000000
          3   0.000000000  -1.000000000  -0.500000000
          4   0.500000000   1.000000000   0.000000000
          5  -1.000000000  -0.500000000   0.000000000
          6   0.000000000  -0.500000000  -1.000000000

     Diagonalizing the dynamical matrix

     q = (   -0.500000000  -1.000000000   0.000000000 ) 

 **************************************************************************
     freq (    1) =      27.362708 [THz] =     912.721688 [cm-1]
     freq (    2) =      27.362708 [THz] =     912.721688 [cm-1]
     freq (    3) =      29.730499 [THz] =     991.702685 [cm-1]
     freq (    4) =      29.730499 [THz] =     991.702685 [cm-1]
     freq (    5) =      34.561970 [THz] =    1152.863226 [cm-1]
     freq (    6) =      34.561970 [THz] =    1152.863226 [cm-1]
 **************************************************************************

     init_run     :      0.10s CPU      0.11s WALL (       7 calls)
     electrons    :     22.13s CPU     24.70s WALL (       7 calls)

     Called by init_run:
     wfcinit      :      0.00s CPU      0.00s WALL (       7 calls)
     potinit      :      0.02s CPU      0.02s WALL (       7 calls)
     hinit0       :      0.00s CPU      0.00s WALL (       7 calls)

     Called by electrons:
     c_bands      :     22.13s CPU     24.70s WALL (       7 calls)
     v_of_rho     :      0.02s CPU      0.02s WALL (       8 calls)

     Called by c_bands:
     init_us_2    :      1.96s CPU      2.22s WALL (   49815 calls)
     cegterg      :     20.69s CPU     23.06s WALL (    1950 calls)

     Called by *egterg:
     cdiaghg      :      1.27s CPU      1.41s WALL (   34023 calls)
     h_psi        :    261.55s CPU    296.31s WALL (  515300 calls)
     g_psi        :      0.13s CPU      0.14s WALL (   32257 calls)

     Called by h_psi:
     h_psi:calbec :      8.97s CPU     10.13s WALL (  515300 calls)
     vloc_psi     :    246.64s CPU    279.48s WALL (  515300 calls)
                                        0.00s GPU  (  515300 calls)
     add_vuspsi   :      4.19s CPU      4.75s WALL (  515300 calls)

     General routines
     calbec       :      8.99s CPU     10.16s WALL (  546395 calls)
     fft          :      0.55s CPU      0.60s WALL (    4259 calls)
     ffts         :      0.63s CPU      0.72s WALL (    5838 calls)
     fftw         :    268.09s CPU    304.14s WALL ( 4465916 calls)
     davcio       :      3.20s CPU      3.87s WALL (  227635 calls)

     Parallel routines

     PHONON       :   5m45.58s CPU   6m31.89s WALL

     INITIALIZATION: 
     phq_setup    :      0.06s CPU      0.07s WALL (       8 calls)
     phq_init     :      0.32s CPU      0.35s WALL (       8 calls)

     phq_init     :      0.32s CPU      0.35s WALL (       8 calls)
     init_vloc    :      0.00s CPU      0.00s WALL (       8 calls)
     init_us_1    :      0.00s CPU      0.00s WALL (       8 calls)
     init_us_2    :      1.96s CPU      2.22s WALL (   49815 calls)

     DYNAMICAL MATRIX:
     dynmat0      :      0.21s CPU      0.22s WALL (       8 calls)
     dynmat_us    :      0.20s CPU      0.22s WALL (       8 calls)
     d2ionq       :      0.00s CPU      0.00s WALL (       8 calls)
     phqscf       :    317.75s CPU    360.76s WALL (       8 calls)
     dynmatrix    :      0.00s CPU      0.01s WALL (       8 calls)

     phqscf       :    317.75s CPU    360.76s WALL (       8 calls)
     solve_linter :    317.12s CPU    360.03s WALL (      32 calls)
     dfpt_kernel  :    316.74s CPU    359.56s WALL (      33 calls)
     sth_kernel   :    313.25s CPU    355.76s WALL (     261 calls)
     h_prec       :      1.02s CPU      1.15s WALL (   37442 calls)
     apply_dpot_b :     21.80s CPU     25.07s WALL (   39566 calls)
     ortho        :      0.79s CPU      0.91s WALL (   45212 calls)
     cgsolve      :    259.97s CPU    294.80s WALL (   45212 calls)
     incdrhoscf   :     25.81s CPU     29.26s WALL (   45125 calls)
                                        0.00s GPU  (   45125 calls)
     dv_of_drho   :      0.67s CPU      0.73s WALL (     377 calls)
     mix_pot      :      0.12s CPU      0.20s WALL (     261 calls)
     drhodv       :      0.62s CPU      0.69s WALL (      32 calls)
     psymdvscf    :      2.64s CPU      2.76s WALL (     261 calls)
     com_dvloc    :      0.82s CPU      0.94s WALL (    5838 calls)
                                        0.00s GPU  (    5838 calls)
     addcore      :      0.00s CPU      0.00s WALL (      48 calls)
                                        0.00s GPU  (      48 calls)

     dvqpsi_us    :      4.25s CPU      4.85s WALL (    5646 calls)
                                        0.00s GPU  (    5646 calls)
     dvqpsi_us_on :      0.30s CPU      0.34s WALL (    5646 calls)

     add_vuspsi   :      4.19s CPU      4.75s WALL (  515300 calls)


      General routines
     calbec       :      8.99s CPU     10.16s WALL (  546395 calls)
     fft          :      0.55s CPU      0.60s WALL (    4259 calls)
     ffts         :      0.63s CPU      0.72s WALL (    5838 calls)
     fftw         :    268.09s CPU    304.14s WALL ( 4465916 calls)
     davcio       :      3.20s CPU      3.87s WALL (  227635 calls)
     write_rec    :      0.04s CPU      0.07s WALL (     293 calls)

      Additional routines
     ch_psi       :    252.16s CPU    285.95s WALL (  479327 calls)
     last         :      7.21s CPU      8.16s WALL (  479327 calls)
     Hesh         :      0.81s CPU      0.94s WALL (  479327 calls)
     ch_psi_all_k :      5.81s CPU      6.58s WALL (  479327 calls)
                                        0.00s GPU  (  479327 calls)
     h_psi_bgrp   :    261.93s CPU    296.73s WALL (  515300 calls)
     h_psi        :    261.55s CPU    296.31s WALL (  515300 calls)
     h_psi:pot    :    260.62s CPU    295.24s WALL (  515300 calls)
     h_psi:calbec :      8.97s CPU     10.13s WALL (  515300 calls)
     s_psi_bgrp   :      0.74s CPU      0.83s WALL ( 1003866 calls)


     PHONON       :   5m45.58s CPU   6m31.89s WALL


   This run was terminated on:  13:36:13  14May2025            

=------------------------------------------------------------------------------=
   JOB DONE.
=------------------------------------------------------------------------------=
