<UPF version="2.0.1">
  <PP_INFO>

 C_ONCV_PBE_FR-1.0.upf

 This pseudopotential file has been produced using the code
 ONCVPSP  (Optimized Norm-Conservinng Vanderbilt PSeudopotential)
 fully-relativistic version 2.1.1, 03/26/2014 by D. R. Hamann
 The code is available through a link at URL www.mat-simresearch.com.
 Documentation with the package provides a full description of the
 input data below.

 While it is not required under the terms of the GNU GPL, it is
 suggested that you cite D. R. Hamann, Phys. Rev. B 88, 085117 (2013)
 in any publication using these pseudopotentials.

 -----

 This pseudopotential was produced with the SG15 1.0 and/or 1.1
 parameter sets, the Schlipf-Gygi norm-conserving pseudopotential
 library. For details of the construction and testing of the
 pseudopotential please refer to:

 M. Schlipf, F. Gygi, Comp. Phys. Comm. 196, 36 (2015)
 http://dx.doi.org/10.1016/j.cpc.2015.05.011

 The above authors kindly ask that you include this reference in all
 publications associated to this pseudopotential.

 Please note this fully-relativistic version does not employ the
 above self-consistent procedure at the fully-relativistic level.

 -----

 This pseudopotential was produced by Peter Scherpelz for the purpose
 of performing GW calculations with spin-orbit-coupling. Please see
 the publication:

 P. Scherpelz, M. Govoni, I. Hamada, G. Galli; J. Chem. Theory Comput. (2016)
 http://dx.doi.org/10.1021/acs.jctc.6b00114

 If you use these pseudopotentials in your work, we also kindly ask
 that you cite the above publication.

 -----

 This work is licensed under the Creative Commons Attribution-ShareAlike 
 4.0 International License. To view a copy of this license, visit 
 http://creativecommons.org/licenses/by-sa/4.0/ or send a letter to 
 Creative Commons, PO Box 1866, Mountain View, CA 94042, USA.

 The SG15 library is Copyright 2015 The Regents of the University of
 California.  Further modifications of these files are Copyright 2016
 Peter Scherpelz.

    <PP_INPUTFILE>
# ATOM AND REFERENCE CONFIGURATION
# atsym  z    nc    nv    iexc   psfile
  C  6.00     1     2     4      upf
#
#   n    l    f        energy (Ha)
    1    0    2.00
    2    0    2.00
    2    1    2.00
#
# PSEUDOPOTENTIAL AND OPTIMIZATION
# lmax
    1
#
#   l,   rc,     ep,   ncon, nbas, qcut
    0    1.42   -0.51    5    8    6.98
    1    1.39   -0.19    5    8    8.59
#
# LOCAL POTENTIAL
# lloc, lpopt,  rc(5),   dvloc0
    4    5      0.82       0.00
#
# VANDERBILT-KLEINMAN-BYLANDER PROJECTORs
# l, nproj, debl
    0    2    1.0962
    1    2    1.2716
#
# MODEL CORE CHARGE
# icmod, fcfact
    0    0.00
#
# LOG DERIVATIVE ANALYSIS
# epsh1, epsh2, depsh
   -5.00    3.00    0.02
#
# OUTPUT GRID
# rlmax, drl
    6.00    0.01
#
# TEST CONFIGURATIONS
# ncnf
    0
# nvcnf
#   n    l    f
    </PP_INPUTFILE>
  </PP_INFO>
  <!--                               -->
  <!-- END OF HUMAN READABLE SECTION -->
  <!--                               -->
    <PP_HEADER
       generated="Generated using ONCVPSP code by D. R. Hamann"
       author="anonymous"
       date="150703"
       comment=""
       element="C "
       pseudo_type="NC"
       relativistic="full"
       is_ultrasoft="F"
       is_paw="F"
       is_coulomb="F"
       has_so="T"
       has_wfc="F"
       has_gipaw="F"
       core_correction="F"
       functional="PBE"
       z_valence="    4.00"
       total_psenergy="  -5.36250110789E+00"
       rho_cutoff="   6.01000000000E+00"
       l_max="1"
       l_local="-1"
       mesh_size="   602"
       number_of_wfc="0"
       number_of_proj="6"/>
 <PP_MESH>
   <PP_R type="real"  size=" 602" columns="8">
    0.0000    0.0100    0.0200    0.0300    0.0400    0.0500    0.0600    0.0700
    0.0800    0.0900    0.1000    0.1100    0.1200    0.1300    0.1400    0.1500
    0.1600    0.1700    0.1800    0.1900    0.2000    0.2100    0.2200    0.2300
    0.2400    0.2500    0.2600    0.2700    0.2800    0.2900    0.3000    0.3100
    0.3200    0.3300    0.3400    0.3500    0.3600    0.3700    0.3800    0.3900
    0.4000    0.4100    0.4200    0.4300    0.4400    0.4500    0.4600    0.4700
    0.4800    0.4900    0.5000    0.5100    0.5200    0.5300    0.5400    0.5500
    0.5600    0.5700    0.5800    0.5900    0.6000    0.6100    0.6200    0.6300
    0.6400    0.6500    0.6600    0.6700    0.6800    0.6900    0.7000    0.7100
    0.7200    0.7300    0.7400    0.7500    0.7600    0.7700    0.7800    0.7900
    0.8000    0.8100    0.8200    0.8300    0.8400    0.8500    0.8600    0.8700
    0.8800    0.8900    0.9000    0.9100    0.9200    0.9300    0.9400    0.9500
    0.9600    0.9700    0.9800    0.9900    1.0000    1.0100    1.0200    1.0300
    1.0400    1.0500    1.0600    1.0700    1.0800    1.0900    1.1000    1.1100
    1.1200    1.1300    1.1400    1.1500    1.1600    1.1700    1.1800    1.1900
    1.2000    1.2100    1.2200    1.2300    1.2400    1.2500    1.2600    1.2700
    1.2800    1.2900    1.3000    1.3100    1.3200    1.3300    1.3400    1.3500
    1.3600    1.3700    1.3800    1.3900    1.4000    1.4100    1.4200    1.4300
    1.4400    1.4500    1.4600    1.4700    1.4800    1.4900    1.5000    1.5100
    1.5200    1.5300    1.5400    1.5500    1.5600    1.5700    1.5800    1.5900
    1.6000    1.6100    1.6200    1.6300    1.6400    1.6500    1.6600    1.6700
    1.6800    1.6900    1.7000    1.7100    1.7200    1.7300    1.7400    1.7500
    1.7600    1.7700    1.7800    1.7900    1.8000    1.8100    1.8200    1.8300
    1.8400    1.8500    1.8600    1.8700    1.8800    1.8900    1.9000    1.9100
    1.9200    1.9300    1.9400    1.9500    1.9600    1.9700    1.9800    1.9900
    2.0000    2.0100    2.0200    2.0300    2.0400    2.0500    2.0600    2.0700
    2.0800    2.0900    2.1000    2.1100    2.1200    2.1300    2.1400    2.1500
    2.1600    2.1700    2.1800    2.1900    2.2000    2.2100    2.2200    2.2300
    2.2400    2.2500    2.2600    2.2700    2.2800    2.2900    2.3000    2.3100
    2.3200    2.3300    2.3400    2.3500    2.3600    2.3700    2.3800    2.3900
    2.4000    2.4100    2.4200    2.4300    2.4400    2.4500    2.4600    2.4700
    2.4800    2.4900    2.5000    2.5100    2.5200    2.5300    2.5400    2.5500
    2.5600    2.5700    2.5800    2.5900    2.6000    2.6100    2.6200    2.6300
    2.6400    2.6500    2.6600    2.6700    2.6800    2.6900    2.7000    2.7100
    2.7200    2.7300    2.7400    2.7500    2.7600    2.7700    2.7800    2.7900
    2.8000    2.8100    2.8200    2.8300    2.8400    2.8500    2.8600    2.8700
    2.8800    2.8900    2.9000    2.9100    2.9200    2.9300    2.9400    2.9500
    2.9600    2.9700    2.9800    2.9900    3.0000    3.0100    3.0200    3.0300
    3.0400    3.0500    3.0600    3.0700    3.0800    3.0900    3.1000    3.1100
    3.1200    3.1300    3.1400    3.1500    3.1600    3.1700    3.1800    3.1900
    3.2000    3.2100    3.2200    3.2300    3.2400    3.2500    3.2600    3.2700
    3.2800    3.2900    3.3000    3.3100    3.3200    3.3300    3.3400    3.3500
    3.3600    3.3700    3.3800    3.3900    3.4000    3.4100    3.4200    3.4300
    3.4400    3.4500    3.4600    3.4700    3.4800    3.4900    3.5000    3.5100
    3.5200    3.5300    3.5400    3.5500    3.5600    3.5700    3.5800    3.5900
    3.6000    3.6100    3.6200    3.6300    3.6400    3.6500    3.6600    3.6700
    3.6800    3.6900    3.7000    3.7100    3.7200    3.7300    3.7400    3.7500
    3.7600    3.7700    3.7800    3.7900    3.8000    3.8100    3.8200    3.8300
    3.8400    3.8500    3.8600    3.8700    3.8800    3.8900    3.9000    3.9100
    3.9200    3.9300    3.9400    3.9500    3.9600    3.9700    3.9800    3.9900
    4.0000    4.0100    4.0200    4.0300    4.0400    4.0500    4.0600    4.0700
    4.0800    4.0900    4.1000    4.1100    4.1200    4.1300    4.1400    4.1500
    4.1600    4.1700    4.1800    4.1900    4.2000    4.2100    4.2200    4.2300
    4.2400    4.2500    4.2600    4.2700    4.2800    4.2900    4.3000    4.3100
    4.3200    4.3300    4.3400    4.3500    4.3600    4.3700    4.3800    4.3900
    4.4000    4.4100    4.4200    4.4300    4.4400    4.4500    4.4600    4.4700
    4.4800    4.4900    4.5000    4.5100    4.5200    4.5300    4.5400    4.5500
    4.5600    4.5700    4.5800    4.5900    4.6000    4.6100    4.6200    4.6300
    4.6400    4.6500    4.6600    4.6700    4.6800    4.6900    4.7000    4.7100
    4.7200    4.7300    4.7400    4.7500    4.7600    4.7700    4.7800    4.7900
    4.8000    4.8100    4.8200    4.8300    4.8400    4.8500    4.8600    4.8700
    4.8800    4.8900    4.9000    4.9100    4.9200    4.9300    4.9400    4.9500
    4.9600    4.9700    4.9800    4.9900    5.0000    5.0100    5.0200    5.0300
    5.0400    5.0500    5.0600    5.0700    5.0800    5.0900    5.1000    5.1100
    5.1200    5.1300    5.1400    5.1500    5.1600    5.1700    5.1800    5.1900
    5.2000    5.2100    5.2200    5.2300    5.2400    5.2500    5.2600    5.2700
    5.2800    5.2900    5.3000    5.3100    5.3200    5.3300    5.3400    5.3500
    5.3600    5.3700    5.3800    5.3900    5.4000    5.4100    5.4200    5.4300
    5.4400    5.4500    5.4600    5.4700    5.4800    5.4900    5.5000    5.5100
    5.5200    5.5300    5.5400    5.5500    5.5600    5.5700    5.5800    5.5900
    5.6000    5.6100    5.6200    5.6300    5.6400    5.6500    5.6600    5.6700
    5.6800    5.6900    5.7000    5.7100    5.7200    5.7300    5.7400    5.7500
    5.7600    5.7700    5.7800    5.7900    5.8000    5.8100    5.8200    5.8300
    5.8400    5.8500    5.8600    5.8700    5.8800    5.8900    5.9000    5.9100
    5.9200    5.9300    5.9400    5.9500    5.9600    5.9700    5.9800    5.9900
    6.0000    6.0100
   </PP_R>
   <PP_RAB type="real"  size=" 602" columns="8">
    0.0100    0.0100    0.0100    0.0100    0.0100    0.0100    0.0100    0.0100
    0.0100    0.0100    0.0100    0.0100    0.0100    0.0100    0.0100    0.0100
    0.0100    0.0100    0.0100    0.0100    0.0100    0.0100    0.0100    0.0100
    0.0100    0.0100    0.0100    0.0100    0.0100    0.0100    0.0100    0.0100
    0.0100    0.0100    0.0100    0.0100    0.0100    0.0100    0.0100    0.0100
    0.0100    0.0100    0.0100    0.0100    0.0100    0.0100    0.0100    0.0100
    0.0100    0.0100    0.0100    0.0100    0.0100    0.0100    0.0100    0.0100
    0.0100    0.0100    0.0100    0.0100    0.0100    0.0100    0.0100    0.0100
    0.0100    0.0100    0.0100    0.0100    0.0100    0.0100    0.0100    0.0100
    0.0100    0.0100    0.0100    0.0100    0.0100    0.0100    0.0100    0.0100
    0.0100    0.0100    0.0100    0.0100    0.0100    0.0100    0.0100    0.0100
    0.0100    0.0100    0.0100    0.0100    0.0100    0.0100    0.0100    0.0100
    0.0100    0.0100    0.0100    0.0100    0.0100    0.0100    0.0100    0.0100
    0.0100    0.0100    0.0100    0.0100    0.0100    0.0100    0.0100    0.0100
    0.0100    0.0100    0.0100    0.0100    0.0100    0.0100    0.0100    0.0100
    0.0100    0.0100    0.0100    0.0100    0.0100    0.0100    0.0100    0.0100
    0.0100    0.0100    0.0100    0.0100    0.0100    0.0100    0.0100    0.0100
    0.0100    0.0100    0.0100    0.0100    0.0100    0.0100    0.0100    0.0100
    0.0100    0.0100    0.0100    0.0100    0.0100    0.0100    0.0100    0.0100
    0.0100    0.0100    0.0100    0.0100    0.0100    0.0100    0.0100    0.0100
    0.0100    0.0100    0.0100    0.0100    0.0100    0.0100    0.0100    0.0100
    0.0100    0.0100    0.0100    0.0100    0.0100    0.0100    0.0100    0.0100
    0.0100    0.0100    0.0100    0.0100    0.0100    0.0100    0.0100    0.0100
    0.0100    0.0100    0.0100    0.0100    0.0100    0.0100    0.0100    0.0100
    0.0100    0.0100    0.0100    0.0100    0.0100    0.0100    0.0100    0.0100
    0.0100    0.0100    0.0100    0.0100    0.0100    0.0100    0.0100    0.0100
    0.0100    0.0100    0.0100    0.0100    0.0100    0.0100    0.0100    0.0100
    0.0100    0.0100    0.0100    0.0100    0.0100    0.0100    0.0100    0.0100
    0.0100    0.0100    0.0100    0.0100    0.0100    0.0100    0.0100    0.0100
    0.0100    0.0100    0.0100    0.0100    0.0100    0.0100    0.0100    0.0100
    0.0100    0.0100    0.0100    0.0100    0.0100    0.0100    0.0100    0.0100
    0.0100    0.0100    0.0100    0.0100    0.0100    0.0100    0.0100    0.0100
    0.0100    0.0100    0.0100    0.0100    0.0100    0.0100    0.0100    0.0100
    0.0100    0.0100    0.0100    0.0100    0.0100    0.0100    0.0100    0.0100
    0.0100    0.0100    0.0100    0.0100    0.0100    0.0100    0.0100    0.0100
    0.0100    0.0100    0.0100    0.0100    0.0100    0.0100    0.0100    0.0100
    0.0100    0.0100    0.0100    0.0100    0.0100    0.0100    0.0100    0.0100
    0.0100    0.0100    0.0100    0.0100    0.0100    0.0100    0.0100    0.0100
    0.0100    0.0100    0.0100    0.0100    0.0100    0.0100    0.0100    0.0100
    0.0100    0.0100    0.0100    0.0100    0.0100    0.0100    0.0100    0.0100
    0.0100    0.0100    0.0100    0.0100    0.0100    0.0100    0.0100    0.0100
    0.0100    0.0100    0.0100    0.0100    0.0100    0.0100    0.0100    0.0100
    0.0100    0.0100    0.0100    0.0100    0.0100    0.0100    0.0100    0.0100
    0.0100    0.0100    0.0100    0.0100    0.0100    0.0100    0.0100    0.0100
    0.0100    0.0100    0.0100    0.0100    0.0100    0.0100    0.0100    0.0100
    0.0100    0.0100    0.0100    0.0100    0.0100    0.0100    0.0100    0.0100
    0.0100    0.0100    0.0100    0.0100    0.0100    0.0100    0.0100    0.0100
    0.0100    0.0100    0.0100    0.0100    0.0100    0.0100    0.0100    0.0100
    0.0100    0.0100    0.0100    0.0100    0.0100    0.0100    0.0100    0.0100
    0.0100    0.0100    0.0100    0.0100    0.0100    0.0100    0.0100    0.0100
    0.0100    0.0100    0.0100    0.0100    0.0100    0.0100    0.0100    0.0100
    0.0100    0.0100    0.0100    0.0100    0.0100    0.0100    0.0100    0.0100
    0.0100    0.0100    0.0100    0.0100    0.0100    0.0100    0.0100    0.0100
    0.0100    0.0100    0.0100    0.0100    0.0100    0.0100    0.0100    0.0100
    0.0100    0.0100    0.0100    0.0100    0.0100    0.0100    0.0100    0.0100
    0.0100    0.0100    0.0100    0.0100    0.0100    0.0100    0.0100    0.0100
    0.0100    0.0100    0.0100    0.0100    0.0100    0.0100    0.0100    0.0100
    0.0100    0.0100    0.0100    0.0100    0.0100    0.0100    0.0100    0.0100
    0.0100    0.0100    0.0100    0.0100    0.0100    0.0100    0.0100    0.0100
    0.0100    0.0100    0.0100    0.0100    0.0100    0.0100    0.0100    0.0100
    0.0100    0.0100    0.0100    0.0100    0.0100    0.0100    0.0100    0.0100
    0.0100    0.0100    0.0100    0.0100    0.0100    0.0100    0.0100    0.0100
    0.0100    0.0100    0.0100    0.0100    0.0100    0.0100    0.0100    0.0100
    0.0100    0.0100    0.0100    0.0100    0.0100    0.0100    0.0100    0.0100
    0.0100    0.0100    0.0100    0.0100    0.0100    0.0100    0.0100    0.0100
    0.0100    0.0100    0.0100    0.0100    0.0100    0.0100    0.0100    0.0100
    0.0100    0.0100    0.0100    0.0100    0.0100    0.0100    0.0100    0.0100
    0.0100    0.0100    0.0100    0.0100    0.0100    0.0100    0.0100    0.0100
    0.0100    0.0100    0.0100    0.0100    0.0100    0.0100    0.0100    0.0100
    0.0100    0.0100    0.0100    0.0100    0.0100    0.0100    0.0100    0.0100
    0.0100    0.0100    0.0100    0.0100    0.0100    0.0100    0.0100    0.0100
    0.0100    0.0100    0.0100    0.0100    0.0100    0.0100    0.0100    0.0100
    0.0100    0.0100    0.0100    0.0100    0.0100    0.0100    0.0100    0.0100
    0.0100    0.0100    0.0100    0.0100    0.0100    0.0100    0.0100    0.0100
    0.0100    0.0100    0.0100    0.0100    0.0100    0.0100    0.0100    0.0100
    0.0100    0.0100
   </PP_RAB>
 </PP_MESH>
  <PP_LOCAL type="real"  size=" 602" columns="4">
   -1.6437523364E+01   -2.1562521880E+01   -2.3531909188E+01   -2.3486324759E+01
   -2.2566408064E+01   -2.1703994419E+01   -2.1113166591E+01   -2.0737713604E+01
   -2.0494892956E+01   -2.0328194930E+01   -2.0204593507E+01   -2.0105298595E+01
   -2.0019325604E+01   -1.9939875036E+01   -1.9862415618E+01   -1.9783688533E+01
   -1.9701197320E+01   -1.9612955568E+01   -1.9517373137E+01   -1.9413216206E+01
   -1.9299603608E+01   -1.9176016496E+01   -1.9042305698E+01   -1.8898687132E+01
   -1.8745719241E+01   -1.8584260913E+01   -1.8415411217E+01   -1.8240436171E+01
   -1.8060689109E+01   -1.7877532841E+01   -1.7692270615E+01   -1.7506091485E+01
   -1.7320033119E+01   -1.7134962043E+01   -1.6951568879E+01   -1.6770376661E+01
   -1.6591754859E+01   -1.6415939282E+01   -1.6243051465E+01   -1.6073116785E+01
   -1.5906080907E+01   -1.5741823084E+01   -1.5580167405E+01   -1.5420892491E+01
   -1.5263740415E+01   -1.5108425537E+01   -1.4954643729E+01   -1.4802082221E+01
   -1.4650429933E+01   -1.4499388080E+01   -1.4348680678E+01   -1.4198063781E+01
   -1.4047333048E+01   -1.3896330778E+01   -1.3744947960E+01   -1.3593126436E+01
   -1.3440857094E+01   -1.3288176337E+01   -1.3135161375E+01   -1.2981923669E+01
   -1.2828602115E+01   -1.2675356475E+01   -1.2522360089E+01   -1.2369794481E+01
   -1.2217843649E+01   -1.2066690032E+01   -1.1916510728E+01   -1.1767475168E+01
   -1.1619743331E+01   -1.1473464506E+01   -1.1328776416E+01   -1.1185805353E+01
   -1.1044666125E+01   -1.0905462339E+01   -1.0768286823E+01   -1.0633221782E+01
   -1.0500339617E+01   -1.0369703229E+01   -1.0241366388E+01   -1.0115374055E+01
   -9.9917626157E+00   -9.8705600390E+00   -9.7517859784E+00   -9.6354516749E+00
   -9.5215566814E+00   -9.4100858048E+00   -9.3010107159E+00   -9.1942928803E+00
   -9.0898861698E+00   -8.9877391030E+00   -8.8877967031E+00   -8.7900019874E+00
   -8.6942971268E+00   -8.6006243201E+00   -8.5089264294E+00   -8.4191474232E+00
   -8.3312326590E+00   -8.2451290139E+00   -8.1607851230E+00   -8.0781512391E+00
   -7.9971792485E+00   -7.9178226128E+00   -7.8400362944E+00   -7.7637766218E+00
   -7.6890013455E+00   -7.6156694957E+00   -7.5437412589E+00   -7.4731779499E+00
   -7.4039418967E+00   -7.3359965625E+00   -7.2693064370E+00   -7.2038369501E+00
   -7.1395544418E+00   -7.0764262120E+00   -7.0144206386E+00   -6.9535069525E+00
   -6.8936552196E+00   -6.8348365371E+00   -6.7770230140E+00   -6.7201875906E+00
   -6.6643039406E+00   -6.6093470374E+00   -6.5552925742E+00   -6.5021169491E+00
   -6.4497977280E+00   -6.3983132922E+00   -6.3476426248E+00   -6.2977657711E+00
   -6.2486635828E+00   -6.2003173895E+00   -6.1527095459E+00   -6.1058230636E+00
   -6.0596413151E+00   -6.0141487007E+00   -5.9693299842E+00   -5.9251703277E+00
   -5.8816557168E+00   -5.8387722685E+00   -5.7965066247E+00   -5.7548459221E+00
   -5.7137773837E+00   -5.6732890165E+00   -5.6333687887E+00   -5.5940048611E+00
   -5.5551858163E+00   -5.5169001830E+00   -5.4791375093E+00   -5.4418872016E+00
   -5.4051387483E+00   -5.3688820702E+00   -5.3331075269E+00   -5.2978057247E+00
   -5.2629671961E+00   -5.2285831281E+00   -5.1946445553E+00   -5.1611430736E+00
   -5.1280702165E+00   -5.0954179273E+00   -5.0631782261E+00   -5.0313433870E+00
   -4.9999058788E+00   -4.9688582964E+00   -4.9381935206E+00   -4.9079044584E+00
   -4.8779843675E+00   -4.8484264598E+00   -4.8192243373E+00   -4.7903715094E+00
   -4.7618618925E+00   -4.7336892864E+00   -4.7058478941E+00   -4.6783317994E+00
   -4.6511354655E+00   -4.6242532548E+00   -4.5976798654E+00   -4.5714099333E+00
   -4.5454383683E+00   -4.5197600757E+00   -4.4943701543E+00   -4.4692637748E+00
   -4.4444362044E+00   -4.4198828750E+00   -4.3955992035E+00   -4.3715808780E+00
   -4.3478234491E+00   -4.3243228478E+00   -4.3010747660E+00   -4.2780753206E+00
   -4.2553204258E+00   -4.2328062881E+00   -4.2105290713E+00   -4.1884850532E+00
   -4.1666706461E+00   -4.1450821866E+00   -4.1237163156E+00   -4.1025694613E+00
   -4.0816384086E+00   -4.0609197926E+00   -4.0404104237E+00   -4.0201071803E+00
   -4.0000068857E+00   -3.9801066339E+00   -3.9604033254E+00   -3.9408941553E+00
   -3.9215762293E+00   -3.9024467272E+00   -3.8835029916E+00   -3.8647421888E+00
   -3.8461618201E+00   -3.8277592246E+00   -3.8095318666E+00   -3.7914773228E+00
   -3.7735930144E+00   -3.7558766784E+00   -3.7383258950E+00   -3.7209383483E+00
   -3.7037118431E+00   -3.6866440313E+00   -3.6697328385E+00   -3.6529760882E+00
   -3.6363716281E+00   -3.6199174802E+00   -3.6036115225E+00   -3.5874518119E+00
   -3.5714364219E+00   -3.5555633175E+00   -3.5398307255E+00   -3.5242367455E+00
   -3.5087795186E+00   -3.4934573324E+00   -3.4782683482E+00   -3.4632108679E+00
   -3.4482832347E+00   -3.4334836745E+00   -3.4188106323E+00   -3.4042624950E+00
   -3.3898375857E+00   -3.3755344443E+00   -3.3613515042E+00   -3.3472872085E+00
   -3.3333401538E+00   -3.3195088328E+00   -3.3057917949E+00   -3.2921876921E+00
   -3.2786950770E+00   -3.2653125923E+00   -3.2520389449E+00   -3.2388727471E+00
   -3.2258127231E+00   -3.2128576341E+00   -3.2000061528E+00   -3.1872570725E+00
   -3.1746092094E+00   -3.1620612960E+00   -3.1496121845E+00   -3.1372607459E+00
   -3.1250057727E+00   -3.1128461653E+00   -3.1007808504E+00   -3.0888086799E+00
   -3.0769285931E+00   -3.0651395726E+00   -3.0534405298E+00   -3.0418304342E+00
   -3.0303083238E+00   -3.0188731703E+00   -3.0075239647E+00   -2.9962598003E+00
   -2.9850797093E+00   -2.9739826973E+00   -2.9629679119E+00   -2.9520344424E+00
   -2.9411813135E+00   -2.9304077152E+00   -2.9197127827E+00   -2.9090955994E+00
   -2.8985553515E+00   -2.8880912326E+00   -2.8777023864E+00   -2.8673879884E+00
   -2.8571472894E+00   -2.8469794949E+00   -2.8368837648E+00   -2.8268594048E+00
   -2.8169056627E+00   -2.8070217401E+00   -2.7972069348E+00   -2.7874605490E+00
   -2.7777818459E+00   -2.7681700924E+00   -2.7586246487E+00   -2.7491448308E+00
   -2.7397299035E+00   -2.7303792503E+00   -2.7210922288E+00   -2.7118681654E+00
   -2.7027064004E+00   -2.6936063513E+00   -2.6845673961E+00   -2.6755888661E+00
   -2.6666701983E+00   -2.6578108112E+00   -2.6490100982E+00   -2.6402674429E+00
   -2.6315823236E+00   -2.6229541751E+00   -2.6143823974E+00   -2.6058664537E+00
   -2.5974058273E+00   -2.5889999793E+00   -2.5806483204E+00   -2.5723503827E+00
   -2.5641056554E+00   -2.5559136115E+00   -2.5477737155E+00   -2.5396855179E+00
   -2.5316485290E+00   -2.5236622329E+00   -2.5157261493E+00   -2.5078398385E+00
   -2.5000028334E+00   -2.4922146317E+00   -2.4844748001E+00   -2.4767829097E+00
   -2.4691385153E+00   -2.4615411298E+00   -2.4539903591E+00   -2.4464857865E+00
   -2.4390269876E+00   -2.4316134925E+00   -2.4242449383E+00   -2.4169209228E+00
   -2.4096410401E+00   -2.4024048415E+00   -2.3952119861E+00   -2.3880620883E+00
   -2.3809547604E+00   -2.3738895749E+00   -2.3668662078E+00   -2.3598842909E+00
   -2.3529434564E+00   -2.3460432923E+00   -2.3391834919E+00   -2.3323637044E+00
   -2.3255835790E+00   -2.3188427245E+00   -2.3121408420E+00   -2.3054776006E+00
   -2.2988526660E+00   -2.2922656696E+00   -2.2857163141E+00   -2.2792042899E+00
   -2.2727292780E+00   -2.2662909331E+00   -2.2598889549E+00   -2.2535230564E+00
   -2.2471929336E+00   -2.2408982662E+00   -2.2346387464E+00   -2.2284141100E+00
   -2.2222240669E+00   -2.2160683231E+00   -2.2099465588E+00   -2.2038585333E+00
   -2.1978039702E+00   -2.1917825934E+00   -2.1857940958E+00   -2.1798382324E+00
   -2.1739147491E+00   -2.1680233823E+00   -2.1621638530E+00   -2.1563358945E+00
   -2.1505392791E+00   -2.1447737557E+00   -2.1390390732E+00   -2.1333349449E+00
   -2.1276611645E+00   -2.1220174943E+00   -2.1164036947E+00   -2.1108195087E+00
   -2.1052646999E+00   -2.0997390596E+00   -2.0942423595E+00   -2.0887743714E+00
   -2.0833348340E+00   -2.0779235590E+00   -2.0725403315E+00   -2.0671849337E+00
   -2.0618571361E+00   -2.0565567125E+00   -2.0512834790E+00   -2.0460372282E+00
   -2.0408177524E+00   -2.0356248208E+00   -2.0304582443E+00   -2.0253178365E+00
   -2.0202033994E+00   -2.0151147353E+00   -2.0100516141E+00   -2.0050138779E+00
   -2.0000013392E+00   -1.9950138092E+00   -1.9900510924E+00   -1.9851129829E+00
   -1.9801993268E+00   -1.9753099441E+00   -1.9704446551E+00   -1.9656032674E+00
   -1.9607855968E+00   -1.9559914919E+00   -1.9512207812E+00   -1.9464732931E+00
   -1.9417488402E+00   -1.9370472552E+00   -1.9323683905E+00   -1.9277120825E+00
   -1.9230781678E+00   -1.9184664653E+00   -1.9138768198E+00   -1.9093090890E+00
   -1.9047631170E+00   -1.9002387480E+00   -1.8957358087E+00   -1.8912541518E+00
   -1.8867936414E+00   -1.8823541291E+00   -1.8779354663E+00   -1.8735374892E+00
   -1.8691600534E+00   -1.8648030317E+00   -1.8604662823E+00   -1.8561496637E+00
   -1.8518530226E+00   -1.8475762140E+00   -1.8433191202E+00   -1.8390816061E+00
   -1.8348635367E+00   -1.8306647707E+00   -1.8264851587E+00   -1.8223245937E+00
   -1.8181829470E+00   -1.8140600896E+00   -1.8099558930E+00   -1.8058702019E+00
   -1.8018029191E+00   -1.7977539223E+00   -1.7937230889E+00   -1.7897102960E+00
   -1.7857154029E+00   -1.7817382996E+00   -1.7777788780E+00   -1.7738370209E+00
   -1.7699126115E+00   -1.7660055245E+00   -1.7621156343E+00   -1.7582428476E+00
   -1.7543870526E+00   -1.7505481378E+00   -1.7467259917E+00   -1.7429204805E+00
   -1.7391315157E+00   -1.7353589944E+00   -1.7316028102E+00   -1.7278628565E+00
   -1.7241390176E+00   -1.7204311827E+00   -1.7167392660E+00   -1.7130631659E+00
   -1.7094027810E+00   -1.7057580100E+00   -1.7021287317E+00   -1.6985148633E+00
   -1.6949163129E+00   -1.6913329837E+00   -1.6877647790E+00   -1.6842115978E+00
   -1.6806733290E+00   -1.6771498998E+00   -1.6736412180E+00   -1.6701471913E+00
   -1.6666677276E+00   -1.6632027233E+00   -1.6597520875E+00   -1.6563157443E+00
   -1.6528936057E+00   -1.6494855839E+00   -1.6460915910E+00   -1.6427115228E+00
   -1.6393453040E+00   -1.6359928572E+00   -1.6326540987E+00   -1.6293289446E+00
   -1.6260173111E+00   -1.6227190951E+00   -1.6194342327E+00   -1.6161626467E+00
   -1.6129042573E+00   -1.6096589844E+00   -1.6064267482E+00   -1.6032074480E+00
   -1.6000010277E+00   -1.5968074116E+00   -1.5936265235E+00   -1.5904582872E+00
   -1.5873026267E+00   -1.5841594448E+00   -1.5810286896E+00   -1.5779102885E+00
   -1.5748041689E+00   -1.5717102582E+00   -1.5686284836E+00   -1.5655587533E+00
   -1.5625010159E+00   -1.5594552034E+00   -1.5564212464E+00   -1.5533990758E+00
   -1.5503886222E+00   -1.5473897997E+00   -1.5444025550E+00   -1.5414268254E+00
   -1.5384625448E+00   -1.5355096474E+00   -1.5325680670E+00   -1.5296377251E+00
   -1.5267185628E+00   -1.5238105245E+00   -1.5209135472E+00   -1.5180275679E+00
   -1.5151525237E+00   -1.5122883444E+00   -1.5094349633E+00   -1.5065923323E+00
   -1.5037603914E+00   -1.5009390807E+00   -1.4981283401E+00   -1.4953281092E+00
   -1.4925383103E+00   -1.4897589043E+00   -1.4869898340E+00   -1.4842310420E+00
   -1.4814824713E+00   -1.4787440646E+00   -1.4760157535E+00   -1.4732974862E+00
   -1.4705892155E+00   -1.4678908868E+00   -1.4652024455E+00   -1.4625238371E+00
   -1.4598550050E+00   -1.4571958812E+00   -1.4545464293E+00   -1.4519065973E+00
   -1.4492763333E+00   -1.4466555853E+00   -1.4440443012E+00   -1.4414424196E+00
   -1.4388498910E+00   -1.4362666739E+00   -1.4336927187E+00   -1.4311279759E+00
   -1.4285723959E+00   -1.4260259291E+00   -1.4234885110E+00   -1.4209601067E+00
   -1.4184406712E+00   -1.4159301571E+00   -1.4134285171E+00   -1.4109357041E+00
   -1.4084516681E+00   -1.4059763506E+00   -1.4035097206E+00   -1.4010517331E+00
   -1.3986023429E+00   -1.3961615050E+00   -1.3937291743E+00   -1.3913053002E+00
   -1.3888898330E+00   -1.3864827406E+00   -1.3840839798E+00   -1.3816935079E+00
   -1.3793112817E+00   -1.3769372584E+00   -1.3745713879E+00   -1.3722136262E+00
   -1.3698639411E+00   -1.3675222918E+00   -1.3651886373E+00   -1.3628629366E+00
   -1.3605451488E+00   -1.3582352256E+00   -1.3559331257E+00   -1.3536388184E+00
   -1.3513522648E+00   -1.3490734256E+00   -1.3468022619E+00   -1.3445387346E+00
   -1.3422827986E+00   -1.3400344123E+00   -1.3377935477E+00   -1.3355601676E+00
   -1.3333342346E+00   -1.3311157117E+00
  </PP_LOCAL>
 <PP_NONLOCAL>
   <PP_BETA.1
       type="real"
       size=" 602"
       columns="4"
       index="1"
       angular_momentum="0"
       cutoff_radius_index=" 146"
       cutoff_radius="    1.4500000000E+00" >
    0.0000000000E+00    3.0482965774E-02    6.0464496157E-02    8.9449691102E-02
    1.1695664398E-01    1.4252274597E-01    1.6571076226E-01    1.8611460793E-01
    2.0336475520E-01    2.1713320777E-01    2.2713798309E-01    2.3314704894E-01
    2.3498166746E-01    2.3251910599E-01    2.2569468212E-01    2.1450311758E-01
    1.9899918389E-01    1.7929763070E-01    1.5557239673E-01    1.2805511040E-01
    9.7032897197E-02    6.2845516160E-02    2.5881860588E-02   -1.3424141901E-02
   -5.4598176595E-02   -9.7130694978E-02   -1.4048249811E-01   -1.8409071188E-01
   -2.2737504696E-01   -2.6974431398E-01   -3.1060309485E-01   -3.4935849921E-01
   -3.8542690913E-01   -4.1824066170E-01   -4.4725467962E-01   -4.7195258193E-01
   -4.9185299164E-01   -5.0651494193E-01   -5.1554316126E-01   -5.1859295190E-01
   -5.1537420662E-01   -5.0565506726E-01   -4.8926489173E-01   -4.6609655188E-01
   -4.3610803794E-01   -3.9932335225E-01   -3.5583268163E-01   -3.0579184603E-01
   -2.4942099655E-01   -1.8700275351E-01   -1.1887955391E-01   -4.5450270819E-02
    3.2833572442E-02    1.1547225321E-01    2.0192281044E-01    2.9160444100E-01
    3.8390433691E-01    4.7818361509E-01    5.7378397802E-01    6.7003397176E-01
    7.6625561113E-01    8.6177178536E-01    9.5591102317E-01    1.0480167920E+00
    1.1374516938E+00    1.2236029943E+00    1.3058915023E+00    1.3837740309E+00
    1.4567487452E+00    1.5243600396E+00    1.5862035267E+00    1.6419275053E+00
    1.6912362945E+00    1.7338921695E+00    1.7697165947E+00    1.7985923815E+00